%VERSION  VERSION_STAMP = V0001.000  DATE = 12/08/25  21:53:35                  
%FLAG TITLE                                                                     
%FORMAT(20a4)                                                                   
default_name                                                                    
%FLAG POINTERS                                                                  
%FORMAT(10I8)                                                                   
    9000       2    3500    6500    7000    9500   16000   15500       0       0
   49250     250    6500    9500   15500       2       2       2       2       0
       0       0       0       0       0       0       0       0      36       0
       0
%FLAG ATOM_NAME                                                                 
%FORMAT(20a4)                                                                   
C1  C2  C3  C4  C5  H6  C7  C8  C9  H10 C11 C12 H13 H14 C15 C16 C17 H18 C19 C20 
C21 H22 C23 H24 H25 H26 C27 C28 H29 C30 C31 H32 C33 H34 H35 H36 C1  C2  C3  C4  
C5  H6  C7  C8  C9  H10 C11 C12 H13 H14 C15 C16 C17 H18 C19 C20 C21 H22 C23 H24 
H25 H26 C27 C28 H29 C30 C31 H32 C33 H34 H35 H36 C1  C2  C3  C4  C5  H6  C7  C8  
C9  H10 C11 C12 H13 H14 C15 C16 C17 H18 C19 C20 C21 H22 C23 H24 H25 H26 C27 C28 
H29 C30 C31 H32 C33 H34 H35 H36 C1  C2  C3  C4  C5  H6  C7  C8  C9  H10 C11 C12 
H13 H14 C15 C16 C17 H18 C19 C20 C21 H22 C23 H24 H25 H26 C27 C28 H29 C30 C31 H32 
C33 H34 H35 H36 C1  C2  C3  C4  C5  H6  C7  C8  C9  H10 C11 C12 H13 H14 C15 C16 
C17 H18 C19 C20 C21 H22 C23 H24 H25 H26 C27 C28 H29 C30 C31 H32 C33 H34 H35 H36 
C1  C2  C3  C4  C5  H6  C7  C8  C9  H10 C11 C12 H13 H14 C15 C16 C17 H18 C19 C20 
C21 H22 C23 H24 H25 H26 C27 C28 H29 C30 C31 H32 C33 H34 H35 H36 C1  C2  C3  C4  
C5  H6  C7  C8  C9  H10 C11 C12 H13 H14 C15 C16 C17 H18 C19 C20 C21 H22 C23 H24 
H25 H26 C27 C28 H29 C30 C31 H32 C33 H34 H35 H36 C1  C2  C3  C4  C5  H6  C7  C8  
C9  H10 C11 C12 H13 H14 C15 C16 C17 H18 C19 C20 C21 H22 C23 H24 H25 H26 C27 C28 
H29 C30 C31 H32 C33 H34 H35 H36 C1  C2  C3  C4  C5  H6  C7  C8  C9  H10 C11 C12 
H13 H14 C15 C16 C17 H18 C19 C20 C21 H22 C23 H24 H25 H26 C27 C28 H29 C30 C31 H32 
C33 H34 H35 H36 C1  C2  C3  C4  C5  H6  C7  C8  C9  H10 C11 C12 H13 H14 C15 C16 
C17 H18 C19 C20 C21 H22 C23 H24 H25 H26 C27 C28 H29 C30 C31 H32 C33 H34 H35 H36 
C1  C2  C3  C4  C5  H6  C7  C8  C9  H10 C11 C12 H13 H14 C15 C16 C17 H18 C19 C20 
C21 H22 C23 H24 H25 H26 C27 C28 H29 C30 C31 H32 C33 H34 H35 H36 C1  C2  C3  C4  
C5  H6  C7  C8  C9  H10 C11 C12 H13 H14 C15 C16 C17 H18 C19 C20 C21 H22 C23 H24 
H25 H26 C27 C28 H29 C30 C31 H32 C33 H34 H35 H36 C1  C2  C3  C4  C5  H6  C7  C8  
C9  H10 C11 C12 H13 H14 C15 C16 C17 H18 C19 C20 C21 H22 C23 H24 H25 H26 C27 C28 
H29 C30 C31 H32 C33 H34 H35 H36 C1  C2  C3  C4  C5  H6  C7  C8  C9  H10 C11 C12 
H13 H14 C15 C16 C17 H18 C19 C20 C21 H22 C23 H24 H25 H26 C27 C28 H29 C30 C31 H32 
C33 H34 H35 H36 C1  C2  C3  C4  C5  H6  C7  C8  C9  H10 C11 C12 H13 H14 C15 C16 
C17 H18 C19 C20 C21 H22 C23 H24 H25 H26 C27 C28 H29 C30 C31 H32 C33 H34 H35 H36 
C1  C2  C3  C4  C5  H6  C7  C8  C9  H10 C11 C12 H13 H14 C15 C16 C17 H18 C19 C20 
C21 H22 C23 H24 H25 H26 C27 C28 H29 C30 C31 H32 C33 H34 H35 H36 C1  C2  C3  C4  
C5  H6  C7  C8  C9  H10 C11 C12 H13 H14 C15 C16 C17 H18 C19 C20 C21 H22 C23 H24 
H25 H26 C27 C28 H29 C30 C31 H32 C33 H34 H35 H36 C1  C2  C3  C4  C5  H6  C7  C8  
C9  H10 C11 C12 H13 H14 C15 C16 C17 H18 C19 C20 C21 H22 C23 H24 H25 H26 C27 C28 
H29 C30 C31 H32 C33 H34 H35 H36 C1  C2  C3  C4  C5  H6  C7  C8  C9  H10 C11 C12 
H13 H14 C15 C16 C17 H18 C19 C20 C21 H22 C23 H24 H25 H26 C27 C28 H29 C30 C31 H32 
C33 H34 H35 H36 C1  C2  C3  C4  C5  H6  C7  C8  C9  H10 C11 C12 H13 H14 C15 C16 
C17 H18 C19 C20 C21 H22 C23 H24 H25 H26 C27 C28 H29 C30 C31 H32 C33 H34 H35 H36 
C1  C2  C3  C4  C5  H6  C7  C8  C9  H10 C11 C12 H13 H14 C15 C16 C17 H18 C19 C20 
C21 H22 C23 H24 H25 H26 C27 C28 H29 C30 C31 H32 C33 H34 H35 H36 C1  C2  C3  C4  
C5  H6  C7  C8  C9  H10 C11 C12 H13 H14 C15 C16 C17 H18 C19 C20 C21 H22 C23 H24 
H25 H26 C27 C28 H29 C30 C31 H32 C33 H34 H35 H36 C1  C2  C3  C4  C5  H6  C7  C8  
C9  H10 C11 C12 H13 H14 C15 C16 C17 H18 C19 C20 C21 H22 C23 H24 H25 H26 C27 C28 
H29 C30 C31 H32 C33 H34 H35 H36 C1  C2  C3  C4  C5  H6  C7  C8  C9  H10 C11 C12 
H13 H14 C15 C16 C17 H18 C19 C20 C21 H22 C23 H24 H25 H26 C27 C28 H29 C30 C31 H32 
C33 H34 H35 H36 C1  C2  C3  C4  C5  H6  C7  C8  C9  H10 C11 C12 H13 H14 C15 C16 
C17 H18 C19 C20 C21 H22 C23 H24 H25 H26 C27 C28 H29 C30 C31 H32 C33 H34 H35 H36 
C1  C2  C3  C4  C5  H6  C7  C8  C9  H10 C11 C12 H13 H14 C15 C16 C17 H18 C19 C20 
C21 H22 C23 H24 H25 H26 C27 C28 H29 C30 C31 H32 C33 H34 H35 H36 C1  C2  C3  C4  
C5  H6  C7  C8  C9  H10 C11 C12 H13 H14 C15 C16 C17 H18 C19 C20 C21 H22 C23 H24 
H25 H26 C27 C28 H29 C30 C31 H32 C33 H34 H35 H36 C1  C2  C3  C4  C5  H6  C7  C8  
C9  H10 C11 C12 H13 H14 C15 C16 C17 H18 C19 C20 C21 H22 C23 H24 H25 H26 C27 C28 
H29 C30 C31 H32 C33 H34 H35 H36 C1  C2  C3  C4  C5  H6  C7  C8  C9  H10 C11 C12 
H13 H14 C15 C16 C17 H18 C19 C20 C21 H22 C23 H24 H25 H26 C27 C28 H29 C30 C31 H32 
C33 H34 H35 H36 C1  C2  C3  C4  C5  H6  C7  C8  C9  H10 C11 C12 H13 H14 C15 C16 
C17 H18 C19 C20 C21 H22 C23 H24 H25 H26 C27 C28 H29 C30 C31 H32 C33 H34 H35 H36 
C1  C2  C3  C4  C5  H6  C7  C8  C9  H10 C11 C12 H13 H14 C15 C16 C17 H18 C19 C20 
C21 H22 C23 H24 H25 H26 C27 C28 H29 C30 C31 H32 C33 H34 H35 H36 C1  C2  C3  C4  
C5  H6  C7  C8  C9  H10 C11 C12 H13 H14 C15 C16 C17 H18 C19 C20 C21 H22 C23 H24 
H25 H26 C27 C28 H29 C30 C31 H32 C33 H34 H35 H36 C1  C2  C3  C4  C5  H6  C7  C8  
C9  H10 C11 C12 H13 H14 C15 C16 C17 H18 C19 C20 C21 H22 C23 H24 H25 H26 C27 C28 
H29 C30 C31 H32 C33 H34 H35 H36 C1  C2  C3  C4  C5  H6  C7  C8  C9  H10 C11 C12 
H13 H14 C15 C16 C17 H18 C19 C20 C21 H22 C23 H24 H25 H26 C27 C28 H29 C30 C31 H32 
C33 H34 H35 H36 C1  C2  C3  C4  C5  H6  C7  C8  C9  H10 C11 C12 H13 H14 C15 C16 
C17 H18 C19 C20 C21 H22 C23 H24 H25 H26 C27 C28 H29 C30 C31 H32 C33 H34 H35 H36 
C1  C2  C3  C4  C5  H6  C7  C8  C9  H10 C11 C12 H13 H14 C15 C16 C17 H18 C19 C20 
C21 H22 C23 H24 H25 H26 C27 C28 H29 C30 C31 H32 C33 H34 H35 H36 C1  C2  C3  C4  
C5  H6  C7  C8  C9  H10 C11 C12 H13 H14 C15 C16 C17 H18 C19 C20 C21 H22 C23 H24 
H25 H26 C27 C28 H29 C30 C31 H32 C33 H34 H35 H36 C1  C2  C3  C4  C5  H6  C7  C8  
C9  H10 C11 C12 H13 H14 C15 C16 C17 H18 C19 C20 C21 H22 C23 H24 H25 H26 C27 C28 
H29 C30 C31 H32 C33 H34 H35 H36 C1  C2  C3  C4  C5  H6  C7  C8  C9  H10 C11 C12 
H13 H14 C15 C16 C17 H18 C19 C20 C21 H22 C23 H24 H25 H26 C27 C28 H29 C30 C31 H32 
C33 H34 H35 H36 C1  C2  C3  C4  C5  H6  C7  C8  C9  H10 C11 C12 H13 H14 C15 C16 
C17 H18 C19 C20 C21 H22 C23 H24 H25 H26 C27 C28 H29 C30 C31 H32 C33 H34 H35 H36 
C1  C2  C3  C4  C5  H6  C7  C8  C9  H10 C11 C12 H13 H14 C15 C16 C17 H18 C19 C20 
C21 H22 C23 H24 H25 H26 C27 C28 H29 C30 C31 H32 C33 H34 H35 H36 C1  C2  C3  C4  
C5  H6  C7  C8  C9  H10 C11 C12 H13 H14 C15 C16 C17 H18 C19 C20 C21 H22 C23 H24 
H25 H26 C27 C28 H29 C30 C31 H32 C33 H34 H35 H36 C1  C2  C3  C4  C5  H6  C7  C8  
C9  H10 C11 C12 H13 H14 C15 C16 C17 H18 C19 C20 C21 H22 C23 H24 H25 H26 C27 C28 
H29 C30 C31 H32 C33 H34 H35 H36 C1  C2  C3  C4  C5  H6  C7  C8  C9  H10 C11 C12 
H13 H14 C15 C16 C17 H18 C19 C20 C21 H22 C23 H24 H25 H26 C27 C28 H29 C30 C31 H32 
C33 H34 H35 H36 C1  C2  C3  C4  C5  H6  C7  C8  C9  H10 C11 C12 H13 H14 C15 C16 
C17 H18 C19 C20 C21 H22 C23 H24 H25 H26 C27 C28 H29 C30 C31 H32 C33 H34 H35 H36 
C1  C2  C3  C4  C5  H6  C7  C8  C9  H10 C11 C12 H13 H14 C15 C16 C17 H18 C19 C20 
C21 H22 C23 H24 H25 H26 C27 C28 H29 C30 C31 H32 C33 H34 H35 H36 C1  C2  C3  C4  
C5  H6  C7  C8  C9  H10 C11 C12 H13 H14 C15 C16 C17 H18 C19 C20 C21 H22 C23 H24 
H25 H26 C27 C28 H29 C30 C31 H32 C33 H34 H35 H36 C1  C2  C3  C4  C5  H6  C7  C8  
C9  H10 C11 C12 H13 H14 C15 C16 C17 H18 C19 C20 C21 H22 C23 H24 H25 H26 C27 C28 
H29 C30 C31 H32 C33 H34 H35 H36 C1  C2  C3  C4  C5  H6  C7  C8  C9  H10 C11 C12 
H13 H14 C15 C16 C17 H18 C19 C20 C21 H22 C23 H24 H25 H26 C27 C28 H29 C30 C31 H32 
C33 H34 H35 H36 C1  C2  C3  C4  C5  H6  C7  C8  C9  H10 C11 C12 H13 H14 C15 C16 
C17 H18 C19 C20 C21 H22 C23 H24 H25 H26 C27 C28 H29 C30 C31 H32 C33 H34 H35 H36 
C1  C2  C3  C4  C5  H6  C7  C8  C9  H10 C11 C12 H13 H14 C15 C16 C17 H18 C19 C20 
C21 H22 C23 H24 H25 H26 C27 C28 H29 C30 C31 H32 C33 H34 H35 H36 C1  C2  C3  C4  
C5  H6  C7  C8  C9  H10 C11 C12 H13 H14 C15 C16 C17 H18 C19 C20 C21 H22 C23 H24 
H25 H26 C27 C28 H29 C30 C31 H32 C33 H34 H35 H36 C1  C2  C3  C4  C5  H6  C7  C8  
C9  H10 C11 C12 H13 H14 C15 C16 C17 H18 C19 C20 C21 H22 C23 H24 H25 H26 C27 C28 
H29 C30 C31 H32 C33 H34 H35 H36 C1  C2  C3  C4  C5  H6  C7  C8  C9  H10 C11 C12 
H13 H14 C15 C16 C17 H18 C19 C20 C21 H22 C23 H24 H25 H26 C27 C28 H29 C30 C31 H32 
C33 H34 H35 H36 C1  C2  C3  C4  C5  H6  C7  C8  C9  H10 C11 C12 H13 H14 C15 C16 
C17 H18 C19 C20 C21 H22 C23 H24 H25 H26 C27 C28 H29 C30 C31 H32 C33 H34 H35 H36 
C1  C2  C3  C4  C5  H6  C7  C8  C9  H10 C11 C12 H13 H14 C15 C16 C17 H18 C19 C20 
C21 H22 C23 H24 H25 H26 C27 C28 H29 C30 C31 H32 C33 H34 H35 H36 C1  C2  C3  C4  
C5  H6  C7  C8  C9  H10 C11 C12 H13 H14 C15 C16 C17 H18 C19 C20 C21 H22 C23 H24 
H25 H26 C27 C28 H29 C30 C31 H32 C33 H34 H35 H36 C1  C2  C3  C4  C5  H6  C7  C8  
C9  H10 C11 C12 H13 H14 C15 C16 C17 H18 C19 C20 C21 H22 C23 H24 H25 H26 C27 C28 
H29 C30 C31 H32 C33 H34 H35 H36 C1  C2  C3  C4  C5  H6  C7  C8  C9  H10 C11 C12 
H13 H14 C15 C16 C17 H18 C19 C20 C21 H22 C23 H24 H25 H26 C27 C28 H29 C30 C31 H32 
C33 H34 H35 H36 C1  C2  C3  C4  C5  H6  C7  C8  C9  H10 C11 C12 H13 H14 C15 C16 
C17 H18 C19 C20 C21 H22 C23 H24 H25 H26 C27 C28 H29 C30 C31 H32 C33 H34 H35 H36 
C1  C2  C3  C4  C5  H6  C7  C8  C9  H10 C11 C12 H13 H14 C15 C16 C17 H18 C19 C20 
C21 H22 C23 H24 H25 H26 C27 C28 H29 C30 C31 H32 C33 H34 H35 H36 C1  C2  C3  C4  
C5  H6  C7  C8  C9  H10 C11 C12 H13 H14 C15 C16 C17 H18 C19 C20 C21 H22 C23 H24 
H25 H26 C27 C28 H29 C30 C31 H32 C33 H34 H35 H36 C1  C2  C3  C4  C5  H6  C7  C8  
C9  H10 C11 C12 H13 H14 C15 C16 C17 H18 C19 C20 C21 H22 C23 H24 H25 H26 C27 C28 
H29 C30 C31 H32 C33 H34 H35 H36 C1  C2  C3  C4  C5  H6  C7  C8  C9  H10 C11 C12 
H13 H14 C15 C16 C17 H18 C19 C20 C21 H22 C23 H24 H25 H26 C27 C28 H29 C30 C31 H32 
C33 H34 H35 H36 C1  C2  C3  C4  C5  H6  C7  C8  C9  H10 C11 C12 H13 H14 C15 C16 
C17 H18 C19 C20 C21 H22 C23 H24 H25 H26 C27 C28 H29 C30 C31 H32 C33 H34 H35 H36 
C1  C2  C3  C4  C5  H6  C7  C8  C9  H10 C11 C12 H13 H14 C15 C16 C17 H18 C19 C20 
C21 H22 C23 H24 H25 H26 C27 C28 H29 C30 C31 H32 C33 H34 H35 H36 C1  C2  C3  C4  
C5  H6  C7  C8  C9  H10 C11 C12 H13 H14 C15 C16 C17 H18 C19 C20 C21 H22 C23 H24 
H25 H26 C27 C28 H29 C30 C31 H32 C33 H34 H35 H36 C1  C2  C3  C4  C5  H6  C7  C8  
C9  H10 C11 C12 H13 H14 C15 C16 C17 H18 C19 C20 C21 H22 C23 H24 H25 H26 C27 C28 
H29 C30 C31 H32 C33 H34 H35 H36 C1  C2  C3  C4  C5  H6  C7  C8  C9  H10 C11 C12 
H13 H14 C15 C16 C17 H18 C19 C20 C21 H22 C23 H24 H25 H26 C27 C28 H29 C30 C31 H32 
C33 H34 H35 H36 C1  C2  C3  C4  C5  H6  C7  C8  C9  H10 C11 C12 H13 H14 C15 C16 
C17 H18 C19 C20 C21 H22 C23 H24 H25 H26 C27 C28 H29 C30 C31 H32 C33 H34 H35 H36 
C1  C2  C3  C4  C5  H6  C7  C8  C9  H10 C11 C12 H13 H14 C15 C16 C17 H18 C19 C20 
C21 H22 C23 H24 H25 H26 C27 C28 H29 C30 C31 H32 C33 H34 H35 H36 C1  C2  C3  C4  
C5  H6  C7  C8  C9  H10 C11 C12 H13 H14 C15 C16 C17 H18 C19 C20 C21 H22 C23 H24 
H25 H26 C27 C28 H29 C30 C31 H32 C33 H34 H35 H36 C1  C2  C3  C4  C5  H6  C7  C8  
C9  H10 C11 C12 H13 H14 C15 C16 C17 H18 C19 C20 C21 H22 C23 H24 H25 H26 C27 C28 
H29 C30 C31 H32 C33 H34 H35 H36 C1  C2  C3  C4  C5  H6  C7  C8  C9  H10 C11 C12 
H13 H14 C15 C16 C17 H18 C19 C20 C21 H22 C23 H24 H25 H26 C27 C28 H29 C30 C31 H32 
C33 H34 H35 H36 C1  C2  C3  C4  C5  H6  C7  C8  C9  H10 C11 C12 H13 H14 C15 C16 
C17 H18 C19 C20 C21 H22 C23 H24 H25 H26 C27 C28 H29 C30 C31 H32 C33 H34 H35 H36 
C1  C2  C3  C4  C5  H6  C7  C8  C9  H10 C11 C12 H13 H14 C15 C16 C17 H18 C19 C20 
C21 H22 C23 H24 H25 H26 C27 C28 H29 C30 C31 H32 C33 H34 H35 H36 C1  C2  C3  C4  
C5  H6  C7  C8  C9  H10 C11 C12 H13 H14 C15 C16 C17 H18 C19 C20 C21 H22 C23 H24 
H25 H26 C27 C28 H29 C30 C31 H32 C33 H34 H35 H36 C1  C2  C3  C4  C5  H6  C7  C8  
C9  H10 C11 C12 H13 H14 C15 C16 C17 H18 C19 C20 C21 H22 C23 H24 H25 H26 C27 C28 
H29 C30 C31 H32 C33 H34 H35 H36 C1  C2  C3  C4  C5  H6  C7  C8  C9  H10 C11 C12 
H13 H14 C15 C16 C17 H18 C19 C20 C21 H22 C23 H24 H25 H26 C27 C28 H29 C30 C31 H32 
C33 H34 H35 H36 C1  C2  C3  C4  C5  H6  C7  C8  C9  H10 C11 C12 H13 H14 C15 C16 
C17 H18 C19 C20 C21 H22 C23 H24 H25 H26 C27 C28 H29 C30 C31 H32 C33 H34 H35 H36 
C1  C2  C3  C4  C5  H6  C7  C8  C9  H10 C11 C12 H13 H14 C15 C16 C17 H18 C19 C20 
C21 H22 C23 H24 H25 H26 C27 C28 H29 C30 C31 H32 C33 H34 H35 H36 C1  C2  C3  C4  
C5  H6  C7  C8  C9  H10 C11 C12 H13 H14 C15 C16 C17 H18 C19 C20 C21 H22 C23 H24 
H25 H26 C27 C28 H29 C30 C31 H32 C33 H34 H35 H36 C1  C2  C3  C4  C5  H6  C7  C8  
C9  H10 C11 C12 H13 H14 C15 C16 C17 H18 C19 C20 C21 H22 C23 H24 H25 H26 C27 C28 
H29 C30 C31 H32 C33 H34 H35 H36 C1  C2  C3  C4  C5  H6  C7  C8  C9  H10 C11 C12 
H13 H14 C15 C16 C17 H18 C19 C20 C21 H22 C23 H24 H25 H26 C27 C28 H29 C30 C31 H32 
C33 H34 H35 H36 C1  C2  C3  C4  C5  H6  C7  C8  C9  H10 C11 C12 H13 H14 C15 C16 
C17 H18 C19 C20 C21 H22 C23 H24 H25 H26 C27 C28 H29 C30 C31 H32 C33 H34 H35 H36 
C1  C2  C3  C4  C5  H6  C7  C8  C9  H10 C11 C12 H13 H14 C15 C16 C17 H18 C19 C20 
C21 H22 C23 H24 H25 H26 C27 C28 H29 C30 C31 H32 C33 H34 H35 H36 C1  C2  C3  C4  
C5  H6  C7  C8  C9  H10 C11 C12 H13 H14 C15 C16 C17 H18 C19 C20 C21 H22 C23 H24 
H25 H26 C27 C28 H29 C30 C31 H32 C33 H34 H35 H36 C1  C2  C3  C4  C5  H6  C7  C8  
C9  H10 C11 C12 H13 H14 C15 C16 C17 H18 C19 C20 C21 H22 C23 H24 H25 H26 C27 C28 
H29 C30 C31 H32 C33 H34 H35 H36 C1  C2  C3  C4  C5  H6  C7  C8  C9  H10 C11 C12 
H13 H14 C15 C16 C17 H18 C19 C20 C21 H22 C23 H24 H25 H26 C27 C28 H29 C30 C31 H32 
C33 H34 H35 H36 C1  C2  C3  C4  C5  H6  C7  C8  C9  H10 C11 C12 H13 H14 C15 C16 
C17 H18 C19 C20 C21 H22 C23 H24 H25 H26 C27 C28 H29 C30 C31 H32 C33 H34 H35 H36 
C1  C2  C3  C4  C5  H6  C7  C8  C9  H10 C11 C12 H13 H14 C15 C16 C17 H18 C19 C20 
C21 H22 C23 H24 H25 H26 C27 C28 H29 C30 C31 H32 C33 H34 H35 H36 C1  C2  C3  C4  
C5  H6  C7  C8  C9  H10 C11 C12 H13 H14 C15 C16 C17 H18 C19 C20 C21 H22 C23 H24 
H25 H26 C27 C28 H29 C30 C31 H32 C33 H34 H35 H36 C1  C2  C3  C4  C5  H6  C7  C8  
C9  H10 C11 C12 H13 H14 C15 C16 C17 H18 C19 C20 C21 H22 C23 H24 H25 H26 C27 C28 
H29 C30 C31 H32 C33 H34 H35 H36 C1  C2  C3  C4  C5  H6  C7  C8  C9  H10 C11 C12 
H13 H14 C15 C16 C17 H18 C19 C20 C21 H22 C23 H24 H25 H26 C27 C28 H29 C30 C31 H32 
C33 H34 H35 H36 C1  C2  C3  C4  C5  H6  C7  C8  C9  H10 C11 C12 H13 H14 C15 C16 
C17 H18 C19 C20 C21 H22 C23 H24 H25 H26 C27 C28 H29 C30 C31 H32 C33 H34 H35 H36 
C1  C2  C3  C4  C5  H6  C7  C8  C9  H10 C11 C12 H13 H14 C15 C16 C17 H18 C19 C20 
C21 H22 C23 H24 H25 H26 C27 C28 H29 C30 C31 H32 C33 H34 H35 H36 C1  C2  C3  C4  
C5  H6  C7  C8  C9  H10 C11 C12 H13 H14 C15 C16 C17 H18 C19 C20 C21 H22 C23 H24 
H25 H26 C27 C28 H29 C30 C31 H32 C33 H34 H35 H36 C1  C2  C3  C4  C5  H6  C7  C8  
C9  H10 C11 C12 H13 H14 C15 C16 C17 H18 C19 C20 C21 H22 C23 H24 H25 H26 C27 C28 
H29 C30 C31 H32 C33 H34 H35 H36 C1  C2  C3  C4  C5  H6  C7  C8  C9  H10 C11 C12 
H13 H14 C15 C16 C17 H18 C19 C20 C21 H22 C23 H24 H25 H26 C27 C28 H29 C30 C31 H32 
C33 H34 H35 H36 C1  C2  C3  C4  C5  H6  C7  C8  C9  H10 C11 C12 H13 H14 C15 C16 
C17 H18 C19 C20 C21 H22 C23 H24 H25 H26 C27 C28 H29 C30 C31 H32 C33 H34 H35 H36 
C1  C2  C3  C4  C5  H6  C7  C8  C9  H10 C11 C12 H13 H14 C15 C16 C17 H18 C19 C20 
C21 H22 C23 H24 H25 H26 C27 C28 H29 C30 C31 H32 C33 H34 H35 H36 C1  C2  C3  C4  
C5  H6  C7  C8  C9  H10 C11 C12 H13 H14 C15 C16 C17 H18 C19 C20 C21 H22 C23 H24 
H25 H26 C27 C28 H29 C30 C31 H32 C33 H34 H35 H36 C1  C2  C3  C4  C5  H6  C7  C8  
C9  H10 C11 C12 H13 H14 C15 C16 C17 H18 C19 C20 C21 H22 C23 H24 H25 H26 C27 C28 
H29 C30 C31 H32 C33 H34 H35 H36 C1  C2  C3  C4  C5  H6  C7  C8  C9  H10 C11 C12 
H13 H14 C15 C16 C17 H18 C19 C20 C21 H22 C23 H24 H25 H26 C27 C28 H29 C30 C31 H32 
C33 H34 H35 H36 C1  C2  C3  C4  C5  H6  C7  C8  C9  H10 C11 C12 H13 H14 C15 C16 
C17 H18 C19 C20 C21 H22 C23 H24 H25 H26 C27 C28 H29 C30 C31 H32 C33 H34 H35 H36 
C1  C2  C3  C4  C5  H6  C7  C8  C9  H10 C11 C12 H13 H14 C15 C16 C17 H18 C19 C20 
C21 H22 C23 H24 H25 H26 C27 C28 H29 C30 C31 H32 C33 H34 H35 H36 C1  C2  C3  C4  
C5  H6  C7  C8  C9  H10 C11 C12 H13 H14 C15 C16 C17 H18 C19 C20 C21 H22 C23 H24 
H25 H26 C27 C28 H29 C30 C31 H32 C33 H34 H35 H36 C1  C2  C3  C4  C5  H6  C7  C8  
C9  H10 C11 C12 H13 H14 C15 C16 C17 H18 C19 C20 C21 H22 C23 H24 H25 H26 C27 C28 
H29 C30 C31 H32 C33 H34 H35 H36 C1  C2  C3  C4  C5  H6  C7  C8  C9  H10 C11 C12 
H13 H14 C15 C16 C17 H18 C19 C20 C21 H22 C23 H24 H25 H26 C27 C28 H29 C30 C31 H32 
C33 H34 H35 H36 C1  C2  C3  C4  C5  H6  C7  C8  C9  H10 C11 C12 H13 H14 C15 C16 
C17 H18 C19 C20 C21 H22 C23 H24 H25 H26 C27 C28 H29 C30 C31 H32 C33 H34 H35 H36 
C1  C2  C3  C4  C5  H6  C7  C8  C9  H10 C11 C12 H13 H14 C15 C16 C17 H18 C19 C20 
C21 H22 C23 H24 H25 H26 C27 C28 H29 C30 C31 H32 C33 H34 H35 H36 C1  C2  C3  C4  
C5  H6  C7  C8  C9  H10 C11 C12 H13 H14 C15 C16 C17 H18 C19 C20 C21 H22 C23 H24 
H25 H26 C27 C28 H29 C30 C31 H32 C33 H34 H35 H36 C1  C2  C3  C4  C5  H6  C7  C8  
C9  H10 C11 C12 H13 H14 C15 C16 C17 H18 C19 C20 C21 H22 C23 H24 H25 H26 C27 C28 
H29 C30 C31 H32 C33 H34 H35 H36 C1  C2  C3  C4  C5  H6  C7  C8  C9  H10 C11 C12 
H13 H14 C15 C16 C17 H18 C19 C20 C21 H22 C23 H24 H25 H26 C27 C28 H29 C30 C31 H32 
C33 H34 H35 H36 C1  C2  C3  C4  C5  H6  C7  C8  C9  H10 C11 C12 H13 H14 C15 C16 
C17 H18 C19 C20 C21 H22 C23 H24 H25 H26 C27 C28 H29 C30 C31 H32 C33 H34 H35 H36 
C1  C2  C3  C4  C5  H6  C7  C8  C9  H10 C11 C12 H13 H14 C15 C16 C17 H18 C19 C20 
C21 H22 C23 H24 H25 H26 C27 C28 H29 C30 C31 H32 C33 H34 H35 H36 C1  C2  C3  C4  
C5  H6  C7  C8  C9  H10 C11 C12 H13 H14 C15 C16 C17 H18 C19 C20 C21 H22 C23 H24 
H25 H26 C27 C28 H29 C30 C31 H32 C33 H34 H35 H36 C1  C2  C3  C4  C5  H6  C7  C8  
C9  H10 C11 C12 H13 H14 C15 C16 C17 H18 C19 C20 C21 H22 C23 H24 H25 H26 C27 C28 
H29 C30 C31 H32 C33 H34 H35 H36 C1  C2  C3  C4  C5  H6  C7  C8  C9  H10 C11 C12 
H13 H14 C15 C16 C17 H18 C19 C20 C21 H22 C23 H24 H25 H26 C27 C28 H29 C30 C31 H32 
C33 H34 H35 H36 C1  C2  C3  C4  C5  H6  C7  C8  C9  H10 C11 C12 H13 H14 C15 C16 
C17 H18 C19 C20 C21 H22 C23 H24 H25 H26 C27 C28 H29 C30 C31 H32 C33 H34 H35 H36 
C1  C2  C3  C4  C5  H6  C7  C8  C9  H10 C11 C12 H13 H14 C15 C16 C17 H18 C19 C20 
C21 H22 C23 H24 H25 H26 C27 C28 H29 C30 C31 H32 C33 H34 H35 H36 C1  C2  C3  C4  
C5  H6  C7  C8  C9  H10 C11 C12 H13 H14 C15 C16 C17 H18 C19 C20 C21 H22 C23 H24 
H25 H26 C27 C28 H29 C30 C31 H32 C33 H34 H35 H36 C1  C2  C3  C4  C5  H6  C7  C8  
C9  H10 C11 C12 H13 H14 C15 C16 C17 H18 C19 C20 C21 H22 C23 H24 H25 H26 C27 C28 
H29 C30 C31 H32 C33 H34 H35 H36 C1  C2  C3  C4  C5  H6  C7  C8  C9  H10 C11 C12 
H13 H14 C15 C16 C17 H18 C19 C20 C21 H22 C23 H24 H25 H26 C27 C28 H29 C30 C31 H32 
C33 H34 H35 H36 C1  C2  C3  C4  C5  H6  C7  C8  C9  H10 C11 C12 H13 H14 C15 C16 
C17 H18 C19 C20 C21 H22 C23 H24 H25 H26 C27 C28 H29 C30 C31 H32 C33 H34 H35 H36 
C1  C2  C3  C4  C5  H6  C7  C8  C9  H10 C11 C12 H13 H14 C15 C16 C17 H18 C19 C20 
C21 H22 C23 H24 H25 H26 C27 C28 H29 C30 C31 H32 C33 H34 H35 H36 C1  C2  C3  C4  
C5  H6  C7  C8  C9  H10 C11 C12 H13 H14 C15 C16 C17 H18 C19 C20 C21 H22 C23 H24 
H25 H26 C27 C28 H29 C30 C31 H32 C33 H34 H35 H36 C1  C2  C3  C4  C5  H6  C7  C8  
C9  H10 C11 C12 H13 H14 C15 C16 C17 H18 C19 C20 C21 H22 C23 H24 H25 H26 C27 C28 
H29 C30 C31 H32 C33 H34 H35 H36 C1  C2  C3  C4  C5  H6  C7  C8  C9  H10 C11 C12 
H13 H14 C15 C16 C17 H18 C19 C20 C21 H22 C23 H24 H25 H26 C27 C28 H29 C30 C31 H32 
C33 H34 H35 H36 C1  C2  C3  C4  C5  H6  C7  C8  C9  H10 C11 C12 H13 H14 C15 C16 
C17 H18 C19 C20 C21 H22 C23 H24 H25 H26 C27 C28 H29 C30 C31 H32 C33 H34 H35 H36 
C1  C2  C3  C4  C5  H6  C7  C8  C9  H10 C11 C12 H13 H14 C15 C16 C17 H18 C19 C20 
C21 H22 C23 H24 H25 H26 C27 C28 H29 C30 C31 H32 C33 H34 H35 H36 C1  C2  C3  C4  
C5  H6  C7  C8  C9  H10 C11 C12 H13 H14 C15 C16 C17 H18 C19 C20 C21 H22 C23 H24 
H25 H26 C27 C28 H29 C30 C31 H32 C33 H34 H35 H36 C1  C2  C3  C4  C5  H6  C7  C8  
C9  H10 C11 C12 H13 H14 C15 C16 C17 H18 C19 C20 C21 H22 C23 H24 H25 H26 C27 C28 
H29 C30 C31 H32 C33 H34 H35 H36 C1  C2  C3  C4  C5  H6  C7  C8  C9  H10 C11 C12 
H13 H14 C15 C16 C17 H18 C19 C20 C21 H22 C23 H24 H25 H26 C27 C28 H29 C30 C31 H32 
C33 H34 H35 H36 C1  C2  C3  C4  C5  H6  C7  C8  C9  H10 C11 C12 H13 H14 C15 C16 
C17 H18 C19 C20 C21 H22 C23 H24 H25 H26 C27 C28 H29 C30 C31 H32 C33 H34 H35 H36 
C1  C2  C3  C4  C5  H6  C7  C8  C9  H10 C11 C12 H13 H14 C15 C16 C17 H18 C19 C20 
C21 H22 C23 H24 H25 H26 C27 C28 H29 C30 C31 H32 C33 H34 H35 H36 C1  C2  C3  C4  
C5  H6  C7  C8  C9  H10 C11 C12 H13 H14 C15 C16 C17 H18 C19 C20 C21 H22 C23 H24 
H25 H26 C27 C28 H29 C30 C31 H32 C33 H34 H35 H36 C1  C2  C3  C4  C5  H6  C7  C8  
C9  H10 C11 C12 H13 H14 C15 C16 C17 H18 C19 C20 C21 H22 C23 H24 H25 H26 C27 C28 
H29 C30 C31 H32 C33 H34 H35 H36 C1  C2  C3  C4  C5  H6  C7  C8  C9  H10 C11 C12 
H13 H14 C15 C16 C17 H18 C19 C20 C21 H22 C23 H24 H25 H26 C27 C28 H29 C30 C31 H32 
C33 H34 H35 H36 C1  C2  C3  C4  C5  H6  C7  C8  C9  H10 C11 C12 H13 H14 C15 C16 
C17 H18 C19 C20 C21 H22 C23 H24 H25 H26 C27 C28 H29 C30 C31 H32 C33 H34 H35 H36 
C1  C2  C3  C4  C5  H6  C7  C8  C9  H10 C11 C12 H13 H14 C15 C16 C17 H18 C19 C20 
C21 H22 C23 H24 H25 H26 C27 C28 H29 C30 C31 H32 C33 H34 H35 H36 C1  C2  C3  C4  
C5  H6  C7  C8  C9  H10 C11 C12 H13 H14 C15 C16 C17 H18 C19 C20 C21 H22 C23 H24 
H25 H26 C27 C28 H29 C30 C31 H32 C33 H34 H35 H36 C1  C2  C3  C4  C5  H6  C7  C8  
C9  H10 C11 C12 H13 H14 C15 C16 C17 H18 C19 C20 C21 H22 C23 H24 H25 H26 C27 C28 
H29 C30 C31 H32 C33 H34 H35 H36 C1  C2  C3  C4  C5  H6  C7  C8  C9  H10 C11 C12 
H13 H14 C15 C16 C17 H18 C19 C20 C21 H22 C23 H24 H25 H26 C27 C28 H29 C30 C31 H32 
C33 H34 H35 H36 C1  C2  C3  C4  C5  H6  C7  C8  C9  H10 C11 C12 H13 H14 C15 C16 
C17 H18 C19 C20 C21 H22 C23 H24 H25 H26 C27 C28 H29 C30 C31 H32 C33 H34 H35 H36 
C1  C2  C3  C4  C5  H6  C7  C8  C9  H10 C11 C12 H13 H14 C15 C16 C17 H18 C19 C20 
C21 H22 C23 H24 H25 H26 C27 C28 H29 C30 C31 H32 C33 H34 H35 H36 C1  C2  C3  C4  
C5  H6  C7  C8  C9  H10 C11 C12 H13 H14 C15 C16 C17 H18 C19 C20 C21 H22 C23 H24 
H25 H26 C27 C28 H29 C30 C31 H32 C33 H34 H35 H36 C1  C2  C3  C4  C5  H6  C7  C8  
C9  H10 C11 C12 H13 H14 C15 C16 C17 H18 C19 C20 C21 H22 C23 H24 H25 H26 C27 C28 
H29 C30 C31 H32 C33 H34 H35 H36 C1  C2  C3  C4  C5  H6  C7  C8  C9  H10 C11 C12 
H13 H14 C15 C16 C17 H18 C19 C20 C21 H22 C23 H24 H25 H26 C27 C28 H29 C30 C31 H32 
C33 H34 H35 H36 C1  C2  C3  C4  C5  H6  C7  C8  C9  H10 C11 C12 H13 H14 C15 C16 
C17 H18 C19 C20 C21 H22 C23 H24 H25 H26 C27 C28 H29 C30 C31 H32 C33 H34 H35 H36 
C1  C2  C3  C4  C5  H6  C7  C8  C9  H10 C11 C12 H13 H14 C15 C16 C17 H18 C19 C20 
C21 H22 C23 H24 H25 H26 C27 C28 H29 C30 C31 H32 C33 H34 H35 H36 C1  C2  C3  C4  
C5  H6  C7  C8  C9  H10 C11 C12 H13 H14 C15 C16 C17 H18 C19 C20 C21 H22 C23 H24 
H25 H26 C27 C28 H29 C30 C31 H32 C33 H34 H35 H36 C1  C2  C3  C4  C5  H6  C7  C8  
C9  H10 C11 C12 H13 H14 C15 C16 C17 H18 C19 C20 C21 H22 C23 H24 H25 H26 C27 C28 
H29 C30 C31 H32 C33 H34 H35 H36 C1  C2  C3  C4  C5  H6  C7  C8  C9  H10 C11 C12 
H13 H14 C15 C16 C17 H18 C19 C20 C21 H22 C23 H24 H25 H26 C27 C28 H29 C30 C31 H32 
C33 H34 H35 H36 C1  C2  C3  C4  C5  H6  C7  C8  C9  H10 C11 C12 H13 H14 C15 C16 
C17 H18 C19 C20 C21 H22 C23 H24 H25 H26 C27 C28 H29 C30 C31 H32 C33 H34 H35 H36 
C1  C2  C3  C4  C5  H6  C7  C8  C9  H10 C11 C12 H13 H14 C15 C16 C17 H18 C19 C20 
C21 H22 C23 H24 H25 H26 C27 C28 H29 C30 C31 H32 C33 H34 H35 H36 C1  C2  C3  C4  
C5  H6  C7  C8  C9  H10 C11 C12 H13 H14 C15 C16 C17 H18 C19 C20 C21 H22 C23 H24 
H25 H26 C27 C28 H29 C30 C31 H32 C33 H34 H35 H36 C1  C2  C3  C4  C5  H6  C7  C8  
C9  H10 C11 C12 H13 H14 C15 C16 C17 H18 C19 C20 C21 H22 C23 H24 H25 H26 C27 C28 
H29 C30 C31 H32 C33 H34 H35 H36 C1  C2  C3  C4  C5  H6  C7  C8  C9  H10 C11 C12 
H13 H14 C15 C16 C17 H18 C19 C20 C21 H22 C23 H24 H25 H26 C27 C28 H29 C30 C31 H32 
C33 H34 H35 H36 C1  C2  C3  C4  C5  H6  C7  C8  C9  H10 C11 C12 H13 H14 C15 C16 
C17 H18 C19 C20 C21 H22 C23 H24 H25 H26 C27 C28 H29 C30 C31 H32 C33 H34 H35 H36 
C1  C2  C3  C4  C5  H6  C7  C8  C9  H10 C11 C12 H13 H14 C15 C16 C17 H18 C19 C20 
C21 H22 C23 H24 H25 H26 C27 C28 H29 C30 C31 H32 C33 H34 H35 H36 C1  C2  C3  C4  
C5  H6  C7  C8  C9  H10 C11 C12 H13 H14 C15 C16 C17 H18 C19 C20 C21 H22 C23 H24 
H25 H26 C27 C28 H29 C30 C31 H32 C33 H34 H35 H36 C1  C2  C3  C4  C5  H6  C7  C8  
C9  H10 C11 C12 H13 H14 C15 C16 C17 H18 C19 C20 C21 H22 C23 H24 H25 H26 C27 C28 
H29 C30 C31 H32 C33 H34 H35 H36 C1  C2  C3  C4  C5  H6  C7  C8  C9  H10 C11 C12 
H13 H14 C15 C16 C17 H18 C19 C20 C21 H22 C23 H24 H25 H26 C27 C28 H29 C30 C31 H32 
C33 H34 H35 H36 C1  C2  C3  C4  C5  H6  C7  C8  C9  H10 C11 C12 H13 H14 C15 C16 
C17 H18 C19 C20 C21 H22 C23 H24 H25 H26 C27 C28 H29 C30 C31 H32 C33 H34 H35 H36 
C1  C2  C3  C4  C5  H6  C7  C8  C9  H10 C11 C12 H13 H14 C15 C16 C17 H18 C19 C20 
C21 H22 C23 H24 H25 H26 C27 C28 H29 C30 C31 H32 C33 H34 H35 H36 C1  C2  C3  C4  
C5  H6  C7  C8  C9  H10 C11 C12 H13 H14 C15 C16 C17 H18 C19 C20 C21 H22 C23 H24 
H25 H26 C27 C28 H29 C30 C31 H32 C33 H34 H35 H36 C1  C2  C3  C4  C5  H6  C7  C8  
C9  H10 C11 C12 H13 H14 C15 C16 C17 H18 C19 C20 C21 H22 C23 H24 H25 H26 C27 C28 
H29 C30 C31 H32 C33 H34 H35 H36 C1  C2  C3  C4  C5  H6  C7  C8  C9  H10 C11 C12 
H13 H14 C15 C16 C17 H18 C19 C20 C21 H22 C23 H24 H25 H26 C27 C28 H29 C30 C31 H32 
C33 H34 H35 H36 C1  C2  C3  C4  C5  H6  C7  C8  C9  H10 C11 C12 H13 H14 C15 C16 
C17 H18 C19 C20 C21 H22 C23 H24 H25 H26 C27 C28 H29 C30 C31 H32 C33 H34 H35 H36 
C1  C2  C3  C4  C5  H6  C7  C8  C9  H10 C11 C12 H13 H14 C15 C16 C17 H18 C19 C20 
C21 H22 C23 H24 H25 H26 C27 C28 H29 C30 C31 H32 C33 H34 H35 H36 C1  C2  C3  C4  
C5  H6  C7  C8  C9  H10 C11 C12 H13 H14 C15 C16 C17 H18 C19 C20 C21 H22 C23 H24 
H25 H26 C27 C28 H29 C30 C31 H32 C33 H34 H35 H36 C1  C2  C3  C4  C5  H6  C7  C8  
C9  H10 C11 C12 H13 H14 C15 C16 C17 H18 C19 C20 C21 H22 C23 H24 H25 H26 C27 C28 
H29 C30 C31 H32 C33 H34 H35 H36 C1  C2  C3  C4  C5  H6  C7  C8  C9  H10 C11 C12 
H13 H14 C15 C16 C17 H18 C19 C20 C21 H22 C23 H24 H25 H26 C27 C28 H29 C30 C31 H32 
C33 H34 H35 H36 C1  C2  C3  C4  C5  H6  C7  C8  C9  H10 C11 C12 H13 H14 C15 C16 
C17 H18 C19 C20 C21 H22 C23 H24 H25 H26 C27 C28 H29 C30 C31 H32 C33 H34 H35 H36 
C1  C2  C3  C4  C5  H6  C7  C8  C9  H10 C11 C12 H13 H14 C15 C16 C17 H18 C19 C20 
C21 H22 C23 H24 H25 H26 C27 C28 H29 C30 C31 H32 C33 H34 H35 H36 C1  C2  C3  C4  
C5  H6  C7  C8  C9  H10 C11 C12 H13 H14 C15 C16 C17 H18 C19 C20 C21 H22 C23 H24 
H25 H26 C27 C28 H29 C30 C31 H32 C33 H34 H35 H36 C1  C2  C3  C4  C5  H6  C7  C8  
C9  H10 C11 C12 H13 H14 C15 C16 C17 H18 C19 C20 C21 H22 C23 H24 H25 H26 C27 C28 
H29 C30 C31 H32 C33 H34 H35 H36 C1  C2  C3  C4  C5  H6  C7  C8  C9  H10 C11 C12 
H13 H14 C15 C16 C17 H18 C19 C20 C21 H22 C23 H24 H25 H26 C27 C28 H29 C30 C31 H32 
C33 H34 H35 H36 C1  C2  C3  C4  C5  H6  C7  C8  C9  H10 C11 C12 H13 H14 C15 C16 
C17 H18 C19 C20 C21 H22 C23 H24 H25 H26 C27 C28 H29 C30 C31 H32 C33 H34 H35 H36 
C1  C2  C3  C4  C5  H6  C7  C8  C9  H10 C11 C12 H13 H14 C15 C16 C17 H18 C19 C20 
C21 H22 C23 H24 H25 H26 C27 C28 H29 C30 C31 H32 C33 H34 H35 H36 C1  C2  C3  C4  
C5  H6  C7  C8  C9  H10 C11 C12 H13 H14 C15 C16 C17 H18 C19 C20 C21 H22 C23 H24 
H25 H26 C27 C28 H29 C30 C31 H32 C33 H34 H35 H36 C1  C2  C3  C4  C5  H6  C7  C8  
C9  H10 C11 C12 H13 H14 C15 C16 C17 H18 C19 C20 C21 H22 C23 H24 H25 H26 C27 C28 
H29 C30 C31 H32 C33 H34 H35 H36 C1  C2  C3  C4  C5  H6  C7  C8  C9  H10 C11 C12 
H13 H14 C15 C16 C17 H18 C19 C20 C21 H22 C23 H24 H25 H26 C27 C28 H29 C30 C31 H32 
C33 H34 H35 H36 C1  C2  C3  C4  C5  H6  C7  C8  C9  H10 C11 C12 H13 H14 C15 C16 
C17 H18 C19 C20 C21 H22 C23 H24 H25 H26 C27 C28 H29 C30 C31 H32 C33 H34 H35 H36 
C1  C2  C3  C4  C5  H6  C7  C8  C9  H10 C11 C12 H13 H14 C15 C16 C17 H18 C19 C20 
C21 H22 C23 H24 H25 H26 C27 C28 H29 C30 C31 H32 C33 H34 H35 H36 C1  C2  C3  C4  
C5  H6  C7  C8  C9  H10 C11 C12 H13 H14 C15 C16 C17 H18 C19 C20 C21 H22 C23 H24 
H25 H26 C27 C28 H29 C30 C31 H32 C33 H34 H35 H36 C1  C2  C3  C4  C5  H6  C7  C8  
C9  H10 C11 C12 H13 H14 C15 C16 C17 H18 C19 C20 C21 H22 C23 H24 H25 H26 C27 C28 
H29 C30 C31 H32 C33 H34 H35 H36 C1  C2  C3  C4  C5  H6  C7  C8  C9  H10 C11 C12 
H13 H14 C15 C16 C17 H18 C19 C20 C21 H22 C23 H24 H25 H26 C27 C28 H29 C30 C31 H32 
C33 H34 H35 H36 C1  C2  C3  C4  C5  H6  C7  C8  C9  H10 C11 C12 H13 H14 C15 C16 
C17 H18 C19 C20 C21 H22 C23 H24 H25 H26 C27 C28 H29 C30 C31 H32 C33 H34 H35 H36 
C1  C2  C3  C4  C5  H6  C7  C8  C9  H10 C11 C12 H13 H14 C15 C16 C17 H18 C19 C20 
C21 H22 C23 H24 H25 H26 C27 C28 H29 C30 C31 H32 C33 H34 H35 H36 C1  C2  C3  C4  
C5  H6  C7  C8  C9  H10 C11 C12 H13 H14 C15 C16 C17 H18 C19 C20 C21 H22 C23 H24 
H25 H26 C27 C28 H29 C30 C31 H32 C33 H34 H35 H36 C1  C2  C3  C4  C5  H6  C7  C8  
C9  H10 C11 C12 H13 H14 C15 C16 C17 H18 C19 C20 C21 H22 C23 H24 H25 H26 C27 C28 
H29 C30 C31 H32 C33 H34 H35 H36 C1  C2  C3  C4  C5  H6  C7  C8  C9  H10 C11 C12 
H13 H14 C15 C16 C17 H18 C19 C20 C21 H22 C23 H24 H25 H26 C27 C28 H29 C30 C31 H32 
C33 H34 H35 H36 C1  C2  C3  C4  C5  H6  C7  C8  C9  H10 C11 C12 H13 H14 C15 C16 
C17 H18 C19 C20 C21 H22 C23 H24 H25 H26 C27 C28 H29 C30 C31 H32 C33 H34 H35 H36 
C1  C2  C3  C4  C5  H6  C7  C8  C9  H10 C11 C12 H13 H14 C15 C16 C17 H18 C19 C20 
C21 H22 C23 H24 H25 H26 C27 C28 H29 C30 C31 H32 C33 H34 H35 H36 C1  C2  C3  C4  
C5  H6  C7  C8  C9  H10 C11 C12 H13 H14 C15 C16 C17 H18 C19 C20 C21 H22 C23 H24 
H25 H26 C27 C28 H29 C30 C31 H32 C33 H34 H35 H36 C1  C2  C3  C4  C5  H6  C7  C8  
C9  H10 C11 C12 H13 H14 C15 C16 C17 H18 C19 C20 C21 H22 C23 H24 H25 H26 C27 C28 
H29 C30 C31 H32 C33 H34 H35 H36 C1  C2  C3  C4  C5  H6  C7  C8  C9  H10 C11 C12 
H13 H14 C15 C16 C17 H18 C19 C20 C21 H22 C23 H24 H25 H26 C27 C28 H29 C30 C31 H32 
C33 H34 H35 H36 C1  C2  C3  C4  C5  H6  C7  C8  C9  H10 C11 C12 H13 H14 C15 C16 
C17 H18 C19 C20 C21 H22 C23 H24 H25 H26 C27 C28 H29 C30 C31 H32 C33 H34 H35 H36 
C1  C2  C3  C4  C5  H6  C7  C8  C9  H10 C11 C12 H13 H14 C15 C16 C17 H18 C19 C20 
C21 H22 C23 H24 H25 H26 C27 C28 H29 C30 C31 H32 C33 H34 H35 H36 C1  C2  C3  C4  
C5  H6  C7  C8  C9  H10 C11 C12 H13 H14 C15 C16 C17 H18 C19 C20 C21 H22 C23 H24 
H25 H26 C27 C28 H29 C30 C31 H32 C33 H34 H35 H36 C1  C2  C3  C4  C5  H6  C7  C8  
C9  H10 C11 C12 H13 H14 C15 C16 C17 H18 C19 C20 C21 H22 C23 H24 H25 H26 C27 C28 
H29 C30 C31 H32 C33 H34 H35 H36 C1  C2  C3  C4  C5  H6  C7  C8  C9  H10 C11 C12 
H13 H14 C15 C16 C17 H18 C19 C20 C21 H22 C23 H24 H25 H26 C27 C28 H29 C30 C31 H32 
C33 H34 H35 H36 C1  C2  C3  C4  C5  H6  C7  C8  C9  H10 C11 C12 H13 H14 C15 C16 
C17 H18 C19 C20 C21 H22 C23 H24 H25 H26 C27 C28 H29 C30 C31 H32 C33 H34 H35 H36 
C1  C2  C3  C4  C5  H6  C7  C8  C9  H10 C11 C12 H13 H14 C15 C16 C17 H18 C19 C20 
C21 H22 C23 H24 H25 H26 C27 C28 H29 C30 C31 H32 C33 H34 H35 H36 C1  C2  C3  C4  
C5  H6  C7  C8  C9  H10 C11 C12 H13 H14 C15 C16 C17 H18 C19 C20 C21 H22 C23 H24 
H25 H26 C27 C28 H29 C30 C31 H32 C33 H34 H35 H36 C1  C2  C3  C4  C5  H6  C7  C8  
C9  H10 C11 C12 H13 H14 C15 C16 C17 H18 C19 C20 C21 H22 C23 H24 H25 H26 C27 C28 
H29 C30 C31 H32 C33 H34 H35 H36 C1  C2  C3  C4  C5  H6  C7  C8  C9  H10 C11 C12 
H13 H14 C15 C16 C17 H18 C19 C20 C21 H22 C23 H24 H25 H26 C27 C28 H29 C30 C31 H32 
C33 H34 H35 H36 C1  C2  C3  C4  C5  H6  C7  C8  C9  H10 C11 C12 H13 H14 C15 C16 
C17 H18 C19 C20 C21 H22 C23 H24 H25 H26 C27 C28 H29 C30 C31 H32 C33 H34 H35 H36 
C1  C2  C3  C4  C5  H6  C7  C8  C9  H10 C11 C12 H13 H14 C15 C16 C17 H18 C19 C20 
C21 H22 C23 H24 H25 H26 C27 C28 H29 C30 C31 H32 C33 H34 H35 H36 C1  C2  C3  C4  
C5  H6  C7  C8  C9  H10 C11 C12 H13 H14 C15 C16 C17 H18 C19 C20 C21 H22 C23 H24 
H25 H26 C27 C28 H29 C30 C31 H32 C33 H34 H35 H36 C1  C2  C3  C4  C5  H6  C7  C8  
C9  H10 C11 C12 H13 H14 C15 C16 C17 H18 C19 C20 C21 H22 C23 H24 H25 H26 C27 C28 
H29 C30 C31 H32 C33 H34 H35 H36 C1  C2  C3  C4  C5  H6  C7  C8  C9  H10 C11 C12 
H13 H14 C15 C16 C17 H18 C19 C20 C21 H22 C23 H24 H25 H26 C27 C28 H29 C30 C31 H32 
C33 H34 H35 H36 C1  C2  C3  C4  C5  H6  C7  C8  C9  H10 C11 C12 H13 H14 C15 C16 
C17 H18 C19 C20 C21 H22 C23 H24 H25 H26 C27 C28 H29 C30 C31 H32 C33 H34 H35 H36 
C1  C2  C3  C4  C5  H6  C7  C8  C9  H10 C11 C12 H13 H14 C15 C16 C17 H18 C19 C20 
C21 H22 C23 H24 H25 H26 C27 C28 H29 C30 C31 H32 C33 H34 H35 H36 C1  C2  C3  C4  
C5  H6  C7  C8  C9  H10 C11 C12 H13 H14 C15 C16 C17 H18 C19 C20 C21 H22 C23 H24 
H25 H26 C27 C28 H29 C30 C31 H32 C33 H34 H35 H36 C1  C2  C3  C4  C5  H6  C7  C8  
C9  H10 C11 C12 H13 H14 C15 C16 C17 H18 C19 C20 C21 H22 C23 H24 H25 H26 C27 C28 
H29 C30 C31 H32 C33 H34 H35 H36 C1  C2  C3  C4  C5  H6  C7  C8  C9  H10 C11 C12 
H13 H14 C15 C16 C17 H18 C19 C20 C21 H22 C23 H24 H25 H26 C27 C28 H29 C30 C31 H32 
C33 H34 H35 H36 C1  C2  C3  C4  C5  H6  C7  C8  C9  H10 C11 C12 H13 H14 C15 C16 
C17 H18 C19 C20 C21 H22 C23 H24 H25 H26 C27 C28 H29 C30 C31 H32 C33 H34 H35 H36 
C1  C2  C3  C4  C5  H6  C7  C8  C9  H10 C11 C12 H13 H14 C15 C16 C17 H18 C19 C20 
C21 H22 C23 H24 H25 H26 C27 C28 H29 C30 C31 H32 C33 H34 H35 H36 C1  C2  C3  C4  
C5  H6  C7  C8  C9  H10 C11 C12 H13 H14 C15 C16 C17 H18 C19 C20 C21 H22 C23 H24 
H25 H26 C27 C28 H29 C30 C31 H32 C33 H34 H35 H36 C1  C2  C3  C4  C5  H6  C7  C8  
C9  H10 C11 C12 H13 H14 C15 C16 C17 H18 C19 C20 C21 H22 C23 H24 H25 H26 C27 C28 
H29 C30 C31 H32 C33 H34 H35 H36 C1  C2  C3  C4  C5  H6  C7  C8  C9  H10 C11 C12 
H13 H14 C15 C16 C17 H18 C19 C20 C21 H22 C23 H24 H25 H26 C27 C28 H29 C30 C31 H32 
C33 H34 H35 H36 C1  C2  C3  C4  C5  H6  C7  C8  C9  H10 C11 C12 H13 H14 C15 C16 
C17 H18 C19 C20 C21 H22 C23 H24 H25 H26 C27 C28 H29 C30 C31 H32 C33 H34 H35 H36 
C1  C2  C3  C4  C5  H6  C7  C8  C9  H10 C11 C12 H13 H14 C15 C16 C17 H18 C19 C20 
C21 H22 C23 H24 H25 H26 C27 C28 H29 C30 C31 H32 C33 H34 H35 H36 C1  C2  C3  C4  
C5  H6  C7  C8  C9  H10 C11 C12 H13 H14 C15 C16 C17 H18 C19 C20 C21 H22 C23 H24 
H25 H26 C27 C28 H29 C30 C31 H32 C33 H34 H35 H36 C1  C2  C3  C4  C5  H6  C7  C8  
C9  H10 C11 C12 H13 H14 C15 C16 C17 H18 C19 C20 C21 H22 C23 H24 H25 H26 C27 C28 
H29 C30 C31 H32 C33 H34 H35 H36 C1  C2  C3  C4  C5  H6  C7  C8  C9  H10 C11 C12 
H13 H14 C15 C16 C17 H18 C19 C20 C21 H22 C23 H24 H25 H26 C27 C28 H29 C30 C31 H32 
C33 H34 H35 H36 C1  C2  C3  C4  C5  H6  C7  C8  C9  H10 C11 C12 H13 H14 C15 C16 
C17 H18 C19 C20 C21 H22 C23 H24 H25 H26 C27 C28 H29 C30 C31 H32 C33 H34 H35 H36 
C1  C2  C3  C4  C5  H6  C7  C8  C9  H10 C11 C12 H13 H14 C15 C16 C17 H18 C19 C20 
C21 H22 C23 H24 H25 H26 C27 C28 H29 C30 C31 H32 C33 H34 H35 H36 C1  C2  C3  C4  
C5  H6  C7  C8  C9  H10 C11 C12 H13 H14 C15 C16 C17 H18 C19 C20 C21 H22 C23 H24 
H25 H26 C27 C28 H29 C30 C31 H32 C33 H34 H35 H36 C1  C2  C3  C4  C5  H6  C7  C8  
C9  H10 C11 C12 H13 H14 C15 C16 C17 H18 C19 C20 C21 H22 C23 H24 H25 H26 C27 C28 
H29 C30 C31 H32 C33 H34 H35 H36 C1  C2  C3  C4  C5  H6  C7  C8  C9  H10 C11 C12 
H13 H14 C15 C16 C17 H18 C19 C20 C21 H22 C23 H24 H25 H26 C27 C28 H29 C30 C31 H32 
C33 H34 H35 H36 C1  C2  C3  C4  C5  H6  C7  C8  C9  H10 C11 C12 H13 H14 C15 C16 
C17 H18 C19 C20 C21 H22 C23 H24 H25 H26 C27 C28 H29 C30 C31 H32 C33 H34 H35 H36 
C1  C2  C3  C4  C5  H6  C7  C8  C9  H10 C11 C12 H13 H14 C15 C16 C17 H18 C19 C20 
C21 H22 C23 H24 H25 H26 C27 C28 H29 C30 C31 H32 C33 H34 H35 H36 C1  C2  C3  C4  
C5  H6  C7  C8  C9  H10 C11 C12 H13 H14 C15 C16 C17 H18 C19 C20 C21 H22 C23 H24 
H25 H26 C27 C28 H29 C30 C31 H32 C33 H34 H35 H36 C1  C2  C3  C4  C5  H6  C7  C8  
C9  H10 C11 C12 H13 H14 C15 C16 C17 H18 C19 C20 C21 H22 C23 H24 H25 H26 C27 C28 
H29 C30 C31 H32 C33 H34 H35 H36 C1  C2  C3  C4  C5  H6  C7  C8  C9  H10 C11 C12 
H13 H14 C15 C16 C17 H18 C19 C20 C21 H22 C23 H24 H25 H26 C27 C28 H29 C30 C31 H32 
C33 H34 H35 H36 C1  C2  C3  C4  C5  H6  C7  C8  C9  H10 C11 C12 H13 H14 C15 C16 
C17 H18 C19 C20 C21 H22 C23 H24 H25 H26 C27 C28 H29 C30 C31 H32 C33 H34 H35 H36 
C1  C2  C3  C4  C5  H6  C7  C8  C9  H10 C11 C12 H13 H14 C15 C16 C17 H18 C19 C20 
C21 H22 C23 H24 H25 H26 C27 C28 H29 C30 C31 H32 C33 H34 H35 H36 C1  C2  C3  C4  
C5  H6  C7  C8  C9  H10 C11 C12 H13 H14 C15 C16 C17 H18 C19 C20 C21 H22 C23 H24 
H25 H26 C27 C28 H29 C30 C31 H32 C33 H34 H35 H36 C1  C2  C3  C4  C5  H6  C7  C8  
C9  H10 C11 C12 H13 H14 C15 C16 C17 H18 C19 C20 C21 H22 C23 H24 H25 H26 C27 C28 
H29 C30 C31 H32 C33 H34 H35 H36 C1  C2  C3  C4  C5  H6  C7  C8  C9  H10 C11 C12 
H13 H14 C15 C16 C17 H18 C19 C20 C21 H22 C23 H24 H25 H26 C27 C28 H29 C30 C31 H32 
C33 H34 H35 H36 C1  C2  C3  C4  C5  H6  C7  C8  C9  H10 C11 C12 H13 H14 C15 C16 
C17 H18 C19 C20 C21 H22 C23 H24 H25 H26 C27 C28 H29 C30 C31 H32 C33 H34 H35 H36 
C1  C2  C3  C4  C5  H6  C7  C8  C9  H10 C11 C12 H13 H14 C15 C16 C17 H18 C19 C20 
C21 H22 C23 H24 H25 H26 C27 C28 H29 C30 C31 H32 C33 H34 H35 H36 C1  C2  C3  C4  
C5  H6  C7  C8  C9  H10 C11 C12 H13 H14 C15 C16 C17 H18 C19 C20 C21 H22 C23 H24 
H25 H26 C27 C28 H29 C30 C31 H32 C33 H34 H35 H36 C1  C2  C3  C4  C5  H6  C7  C8  
C9  H10 C11 C12 H13 H14 C15 C16 C17 H18 C19 C20 C21 H22 C23 H24 H25 H26 C27 C28 
H29 C30 C31 H32 C33 H34 H35 H36 C1  C2  C3  C4  C5  H6  C7  C8  C9  H10 C11 C12 
H13 H14 C15 C16 C17 H18 C19 C20 C21 H22 C23 H24 H25 H26 C27 C28 H29 C30 C31 H32 
C33 H34 H35 H36 C1  C2  C3  C4  C5  H6  C7  C8  C9  H10 C11 C12 H13 H14 C15 C16 
C17 H18 C19 C20 C21 H22 C23 H24 H25 H26 C27 C28 H29 C30 C31 H32 C33 H34 H35 H36 
%FLAG CHARGE                                                                    
%FORMAT(5E16.8)                                                                 
 -5.28446700E-01 -1.94978610E+00 -5.28446700E-01 -1.94978610E+00 -5.83113600E-01
  2.44178820E+00 -1.94978610E+00 -1.94978610E+00 -5.28446700E-01  2.46001050E+00
 -2.15023140E+00 -5.83113600E-01  2.44178820E+00  2.46001050E+00 -5.28446700E-01
 -1.94978610E+00 -2.29600980E+00  2.40534360E+00 -2.15023140E+00 -1.94978610E+00
 -5.83113600E-01  2.44178820E+00 -2.29600980E+00  2.40534360E+00  2.40534360E+00
  2.44178820E+00 -5.83113600E-01 -2.15023140E+00  2.40534360E+00 -2.15023140E+00
 -2.29600980E+00  2.40534360E+00 -2.29600980E+00  2.40534360E+00  2.40534360E+00
  2.40534360E+00 -5.28446700E-01 -1.94978610E+00 -5.28446700E-01 -1.94978610E+00
 -5.83113600E-01  2.44178820E+00 -1.94978610E+00 -1.94978610E+00 -5.28446700E-01
  2.46001050E+00 -2.15023140E+00 -5.83113600E-01  2.44178820E+00  2.46001050E+00
 -5.28446700E-01 -1.94978610E+00 -2.29600980E+00  2.40534360E+00 -2.15023140E+00
 -1.94978610E+00 -5.83113600E-01  2.44178820E+00 -2.29600980E+00  2.40534360E+00
  2.40534360E+00  2.44178820E+00 -5.83113600E-01 -2.15023140E+00  2.40534360E+00
 -2.15023140E+00 -2.29600980E+00  2.40534360E+00 -2.29600980E+00  2.40534360E+00
  2.40534360E+00  2.40534360E+00 -5.28446700E-01 -1.94978610E+00 -5.28446700E-01
 -1.94978610E+00 -5.83113600E-01  2.44178820E+00 -1.94978610E+00 -1.94978610E+00
 -5.28446700E-01  2.46001050E+00 -2.15023140E+00 -5.83113600E-01  2.44178820E+00
  2.46001050E+00 -5.28446700E-01 -1.94978610E+00 -2.29600980E+00  2.40534360E+00
 -2.15023140E+00 -1.94978610E+00 -5.83113600E-01  2.44178820E+00 -2.29600980E+00
  2.40534360E+00  2.40534360E+00  2.44178820E+00 -5.83113600E-01 -2.15023140E+00
  2.40534360E+00 -2.15023140E+00 -2.29600980E+00  2.40534360E+00 -2.29600980E+00
  2.40534360E+00  2.40534360E+00  2.40534360E+00 -5.28446700E-01 -1.94978610E+00
 -5.28446700E-01 -1.94978610E+00 -5.83113600E-01  2.44178820E+00 -1.94978610E+00
 -1.94978610E+00 -5.28446700E-01  2.46001050E+00 -2.15023140E+00 -5.83113600E-01
  2.44178820E+00  2.46001050E+00 -5.28446700E-01 -1.94978610E+00 -2.29600980E+00
  2.40534360E+00 -2.15023140E+00 -1.94978610E+00 -5.83113600E-01  2.44178820E+00
 -2.29600980E+00  2.40534360E+00  2.40534360E+00  2.44178820E+00 -5.83113600E-01
 -2.15023140E+00  2.40534360E+00 -2.15023140E+00 -2.29600980E+00  2.40534360E+00
 -2.29600980E+00  2.40534360E+00  2.40534360E+00  2.40534360E+00 -5.28446700E-01
 -1.94978610E+00 -5.28446700E-01 -1.94978610E+00 -5.83113600E-01  2.44178820E+00
 -1.94978610E+00 -1.94978610E+00 -5.28446700E-01  2.46001050E+00 -2.15023140E+00
 -5.83113600E-01  2.44178820E+00  2.46001050E+00 -5.28446700E-01 -1.94978610E+00
 -2.29600980E+00  2.40534360E+00 -2.15023140E+00 -1.94978610E+00 -5.83113600E-01
  2.44178820E+00 -2.29600980E+00  2.40534360E+00  2.40534360E+00  2.44178820E+00
 -5.83113600E-01 -2.15023140E+00  2.40534360E+00 -2.15023140E+00 -2.29600980E+00
  2.40534360E+00 -2.29600980E+00  2.40534360E+00  2.40534360E+00  2.40534360E+00
 -5.28446700E-01 -1.94978610E+00 -5.28446700E-01 -1.94978610E+00 -5.83113600E-01
  2.44178820E+00 -1.94978610E+00 -1.94978610E+00 -5.28446700E-01  2.46001050E+00
 -2.15023140E+00 -5.83113600E-01  2.44178820E+00  2.46001050E+00 -5.28446700E-01
 -1.94978610E+00 -2.29600980E+00  2.40534360E+00 -2.15023140E+00 -1.94978610E+00
 -5.83113600E-01  2.44178820E+00 -2.29600980E+00  2.40534360E+00  2.40534360E+00
  2.44178820E+00 -5.83113600E-01 -2.15023140E+00  2.40534360E+00 -2.15023140E+00
 -2.29600980E+00  2.40534360E+00 -2.29600980E+00  2.40534360E+00  2.40534360E+00
  2.40534360E+00 -5.28446700E-01 -1.94978610E+00 -5.28446700E-01 -1.94978610E+00
 -5.83113600E-01  2.44178820E+00 -1.94978610E+00 -1.94978610E+00 -5.28446700E-01
  2.46001050E+00 -2.15023140E+00 -5.83113600E-01  2.44178820E+00  2.46001050E+00
 -5.28446700E-01 -1.94978610E+00 -2.29600980E+00  2.40534360E+00 -2.15023140E+00
 -1.94978610E+00 -5.83113600E-01  2.44178820E+00 -2.29600980E+00  2.40534360E+00
  2.40534360E+00  2.44178820E+00 -5.83113600E-01 -2.15023140E+00  2.40534360E+00
 -2.15023140E+00 -2.29600980E+00  2.40534360E+00 -2.29600980E+00  2.40534360E+00
  2.40534360E+00  2.40534360E+00 -5.28446700E-01 -1.94978610E+00 -5.28446700E-01
 -1.94978610E+00 -5.83113600E-01  2.44178820E+00 -1.94978610E+00 -1.94978610E+00
 -5.28446700E-01  2.46001050E+00 -2.15023140E+00 -5.83113600E-01  2.44178820E+00
  2.46001050E+00 -5.28446700E-01 -1.94978610E+00 -2.29600980E+00  2.40534360E+00
 -2.15023140E+00 -1.94978610E+00 -5.83113600E-01  2.44178820E+00 -2.29600980E+00
  2.40534360E+00  2.40534360E+00  2.44178820E+00 -5.83113600E-01 -2.15023140E+00
  2.40534360E+00 -2.15023140E+00 -2.29600980E+00  2.40534360E+00 -2.29600980E+00
  2.40534360E+00  2.40534360E+00  2.40534360E+00 -5.28446700E-01 -1.94978610E+00
 -5.28446700E-01 -1.94978610E+00 -5.83113600E-01  2.44178820E+00 -1.94978610E+00
 -1.94978610E+00 -5.28446700E-01  2.46001050E+00 -2.15023140E+00 -5.83113600E-01
  2.44178820E+00  2.46001050E+00 -5.28446700E-01 -1.94978610E+00 -2.29600980E+00
  2.40534360E+00 -2.15023140E+00 -1.94978610E+00 -5.83113600E-01  2.44178820E+00
 -2.29600980E+00  2.40534360E+00  2.40534360E+00  2.44178820E+00 -5.83113600E-01
 -2.15023140E+00  2.40534360E+00 -2.15023140E+00 -2.29600980E+00  2.40534360E+00
 -2.29600980E+00  2.40534360E+00  2.40534360E+00  2.40534360E+00 -5.28446700E-01
 -1.94978610E+00 -5.28446700E-01 -1.94978610E+00 -5.83113600E-01  2.44178820E+00
 -1.94978610E+00 -1.94978610E+00 -5.28446700E-01  2.46001050E+00 -2.15023140E+00
 -5.83113600E-01  2.44178820E+00  2.46001050E+00 -5.28446700E-01 -1.94978610E+00
 -2.29600980E+00  2.40534360E+00 -2.15023140E+00 -1.94978610E+00 -5.83113600E-01
  2.44178820E+00 -2.29600980E+00  2.40534360E+00  2.40534360E+00  2.44178820E+00
 -5.83113600E-01 -2.15023140E+00  2.40534360E+00 -2.15023140E+00 -2.29600980E+00
  2.40534360E+00 -2.29600980E+00  2.40534360E+00  2.40534360E+00  2.40534360E+00
 -5.28446700E-01 -1.94978610E+00 -5.28446700E-01 -1.94978610E+00 -5.83113600E-01
  2.44178820E+00 -1.94978610E+00 -1.94978610E+00 -5.28446700E-01  2.46001050E+00
 -2.15023140E+00 -5.83113600E-01  2.44178820E+00  2.46001050E+00 -5.28446700E-01
 -1.94978610E+00 -2.29600980E+00  2.40534360E+00 -2.15023140E+00 -1.94978610E+00
 -5.83113600E-01  2.44178820E+00 -2.29600980E+00  2.40534360E+00  2.40534360E+00
  2.44178820E+00 -5.83113600E-01 -2.15023140E+00  2.40534360E+00 -2.15023140E+00
 -2.29600980E+00  2.40534360E+00 -2.29600980E+00  2.40534360E+00  2.40534360E+00
  2.40534360E+00 -5.28446700E-01 -1.94978610E+00 -5.28446700E-01 -1.94978610E+00
 -5.83113600E-01  2.44178820E+00 -1.94978610E+00 -1.94978610E+00 -5.28446700E-01
  2.46001050E+00 -2.15023140E+00 -5.83113600E-01  2.44178820E+00  2.46001050E+00
 -5.28446700E-01 -1.94978610E+00 -2.29600980E+00  2.40534360E+00 -2.15023140E+00
 -1.94978610E+00 -5.83113600E-01  2.44178820E+00 -2.29600980E+00  2.40534360E+00
  2.40534360E+00  2.44178820E+00 -5.83113600E-01 -2.15023140E+00  2.40534360E+00
 -2.15023140E+00 -2.29600980E+00  2.40534360E+00 -2.29600980E+00  2.40534360E+00
  2.40534360E+00  2.40534360E+00 -5.28446700E-01 -1.94978610E+00 -5.28446700E-01
 -1.94978610E+00 -5.83113600E-01  2.44178820E+00 -1.94978610E+00 -1.94978610E+00
 -5.28446700E-01  2.46001050E+00 -2.15023140E+00 -5.83113600E-01  2.44178820E+00
  2.46001050E+00 -5.28446700E-01 -1.94978610E+00 -2.29600980E+00  2.40534360E+00
 -2.15023140E+00 -1.94978610E+00 -5.83113600E-01  2.44178820E+00 -2.29600980E+00
  2.40534360E+00  2.40534360E+00  2.44178820E+00 -5.83113600E-01 -2.15023140E+00
  2.40534360E+00 -2.15023140E+00 -2.29600980E+00  2.40534360E+00 -2.29600980E+00
  2.40534360E+00  2.40534360E+00  2.40534360E+00 -5.28446700E-01 -1.94978610E+00
 -5.28446700E-01 -1.94978610E+00 -5.83113600E-01  2.44178820E+00 -1.94978610E+00
 -1.94978610E+00 -5.28446700E-01  2.46001050E+00 -2.15023140E+00 -5.83113600E-01
  2.44178820E+00  2.46001050E+00 -5.28446700E-01 -1.94978610E+00 -2.29600980E+00
  2.40534360E+00 -2.15023140E+00 -1.94978610E+00 -5.83113600E-01  2.44178820E+00
 -2.29600980E+00  2.40534360E+00  2.40534360E+00  2.44178820E+00 -5.83113600E-01
 -2.15023140E+00  2.40534360E+00 -2.15023140E+00 -2.29600980E+00  2.40534360E+00
 -2.29600980E+00  2.40534360E+00  2.40534360E+00  2.40534360E+00 -5.28446700E-01
 -1.94978610E+00 -5.28446700E-01 -1.94978610E+00 -5.83113600E-01  2.44178820E+00
 -1.94978610E+00 -1.94978610E+00 -5.28446700E-01  2.46001050E+00 -2.15023140E+00
 -5.83113600E-01  2.44178820E+00  2.46001050E+00 -5.28446700E-01 -1.94978610E+00
 -2.29600980E+00  2.40534360E+00 -2.15023140E+00 -1.94978610E+00 -5.83113600E-01
  2.44178820E+00 -2.29600980E+00  2.40534360E+00  2.40534360E+00  2.44178820E+00
 -5.83113600E-01 -2.15023140E+00  2.40534360E+00 -2.15023140E+00 -2.29600980E+00
  2.40534360E+00 -2.29600980E+00  2.40534360E+00  2.40534360E+00  2.40534360E+00
 -5.28446700E-01 -1.94978610E+00 -5.28446700E-01 -1.94978610E+00 -5.83113600E-01
  2.44178820E+00 -1.94978610E+00 -1.94978610E+00 -5.28446700E-01  2.46001050E+00
 -2.15023140E+00 -5.83113600E-01  2.44178820E+00  2.46001050E+00 -5.28446700E-01
 -1.94978610E+00 -2.29600980E+00  2.40534360E+00 -2.15023140E+00 -1.94978610E+00
 -5.83113600E-01  2.44178820E+00 -2.29600980E+00  2.40534360E+00  2.40534360E+00
  2.44178820E+00 -5.83113600E-01 -2.15023140E+00  2.40534360E+00 -2.15023140E+00
 -2.29600980E+00  2.40534360E+00 -2.29600980E+00  2.40534360E+00  2.40534360E+00
  2.40534360E+00 -5.28446700E-01 -1.94978610E+00 -5.28446700E-01 -1.94978610E+00
 -5.83113600E-01  2.44178820E+00 -1.94978610E+00 -1.94978610E+00 -5.28446700E-01
  2.46001050E+00 -2.15023140E+00 -5.83113600E-01  2.44178820E+00  2.46001050E+00
 -5.28446700E-01 -1.94978610E+00 -2.29600980E+00  2.40534360E+00 -2.15023140E+00
 -1.94978610E+00 -5.83113600E-01  2.44178820E+00 -2.29600980E+00  2.40534360E+00
  2.40534360E+00  2.44178820E+00 -5.83113600E-01 -2.15023140E+00  2.40534360E+00
 -2.15023140E+00 -2.29600980E+00  2.40534360E+00 -2.29600980E+00  2.40534360E+00
  2.40534360E+00  2.40534360E+00 -5.28446700E-01 -1.94978610E+00 -5.28446700E-01
 -1.94978610E+00 -5.83113600E-01  2.44178820E+00 -1.94978610E+00 -1.94978610E+00
 -5.28446700E-01  2.46001050E+00 -2.15023140E+00 -5.83113600E-01  2.44178820E+00
  2.46001050E+00 -5.28446700E-01 -1.94978610E+00 -2.29600980E+00  2.40534360E+00
 -2.15023140E+00 -1.94978610E+00 -5.83113600E-01  2.44178820E+00 -2.29600980E+00
  2.40534360E+00  2.40534360E+00  2.44178820E+00 -5.83113600E-01 -2.15023140E+00
  2.40534360E+00 -2.15023140E+00 -2.29600980E+00  2.40534360E+00 -2.29600980E+00
  2.40534360E+00  2.40534360E+00  2.40534360E+00 -5.28446700E-01 -1.94978610E+00
 -5.28446700E-01 -1.94978610E+00 -5.83113600E-01  2.44178820E+00 -1.94978610E+00
 -1.94978610E+00 -5.28446700E-01  2.46001050E+00 -2.15023140E+00 -5.83113600E-01
  2.44178820E+00  2.46001050E+00 -5.28446700E-01 -1.94978610E+00 -2.29600980E+00
  2.40534360E+00 -2.15023140E+00 -1.94978610E+00 -5.83113600E-01  2.44178820E+00
 -2.29600980E+00  2.40534360E+00  2.40534360E+00  2.44178820E+00 -5.83113600E-01
 -2.15023140E+00  2.40534360E+00 -2.15023140E+00 -2.29600980E+00  2.40534360E+00
 -2.29600980E+00  2.40534360E+00  2.40534360E+00  2.40534360E+00 -5.28446700E-01
 -1.94978610E+00 -5.28446700E-01 -1.94978610E+00 -5.83113600E-01  2.44178820E+00
 -1.94978610E+00 -1.94978610E+00 -5.28446700E-01  2.46001050E+00 -2.15023140E+00
 -5.83113600E-01  2.44178820E+00  2.46001050E+00 -5.28446700E-01 -1.94978610E+00
 -2.29600980E+00  2.40534360E+00 -2.15023140E+00 -1.94978610E+00 -5.83113600E-01
  2.44178820E+00 -2.29600980E+00  2.40534360E+00  2.40534360E+00  2.44178820E+00
 -5.83113600E-01 -2.15023140E+00  2.40534360E+00 -2.15023140E+00 -2.29600980E+00
  2.40534360E+00 -2.29600980E+00  2.40534360E+00  2.40534360E+00  2.40534360E+00
 -5.28446700E-01 -1.94978610E+00 -5.28446700E-01 -1.94978610E+00 -5.83113600E-01
  2.44178820E+00 -1.94978610E+00 -1.94978610E+00 -5.28446700E-01  2.46001050E+00
 -2.15023140E+00 -5.83113600E-01  2.44178820E+00  2.46001050E+00 -5.28446700E-01
 -1.94978610E+00 -2.29600980E+00  2.40534360E+00 -2.15023140E+00 -1.94978610E+00
 -5.83113600E-01  2.44178820E+00 -2.29600980E+00  2.40534360E+00  2.40534360E+00
  2.44178820E+00 -5.83113600E-01 -2.15023140E+00  2.40534360E+00 -2.15023140E+00
 -2.29600980E+00  2.40534360E+00 -2.29600980E+00  2.40534360E+00  2.40534360E+00
  2.40534360E+00 -5.28446700E-01 -1.94978610E+00 -5.28446700E-01 -1.94978610E+00
 -5.83113600E-01  2.44178820E+00 -1.94978610E+00 -1.94978610E+00 -5.28446700E-01
  2.46001050E+00 -2.15023140E+00 -5.83113600E-01  2.44178820E+00  2.46001050E+00
 -5.28446700E-01 -1.94978610E+00 -2.29600980E+00  2.40534360E+00 -2.15023140E+00
 -1.94978610E+00 -5.83113600E-01  2.44178820E+00 -2.29600980E+00  2.40534360E+00
  2.40534360E+00  2.44178820E+00 -5.83113600E-01 -2.15023140E+00  2.40534360E+00
 -2.15023140E+00 -2.29600980E+00  2.40534360E+00 -2.29600980E+00  2.40534360E+00
  2.40534360E+00  2.40534360E+00 -5.28446700E-01 -1.94978610E+00 -5.28446700E-01
 -1.94978610E+00 -5.83113600E-01  2.44178820E+00 -1.94978610E+00 -1.94978610E+00
 -5.28446700E-01  2.46001050E+00 -2.15023140E+00 -5.83113600E-01  2.44178820E+00
  2.46001050E+00 -5.28446700E-01 -1.94978610E+00 -2.29600980E+00  2.40534360E+00
 -2.15023140E+00 -1.94978610E+00 -5.83113600E-01  2.44178820E+00 -2.29600980E+00
  2.40534360E+00  2.40534360E+00  2.44178820E+00 -5.83113600E-01 -2.15023140E+00
  2.40534360E+00 -2.15023140E+00 -2.29600980E+00  2.40534360E+00 -2.29600980E+00
  2.40534360E+00  2.40534360E+00  2.40534360E+00 -5.28446700E-01 -1.94978610E+00
 -5.28446700E-01 -1.94978610E+00 -5.83113600E-01  2.44178820E+00 -1.94978610E+00
 -1.94978610E+00 -5.28446700E-01  2.46001050E+00 -2.15023140E+00 -5.83113600E-01
  2.44178820E+00  2.46001050E+00 -5.28446700E-01 -1.94978610E+00 -2.29600980E+00
  2.40534360E+00 -2.15023140E+00 -1.94978610E+00 -5.83113600E-01  2.44178820E+00
 -2.29600980E+00  2.40534360E+00  2.40534360E+00  2.44178820E+00 -5.83113600E-01
 -2.15023140E+00  2.40534360E+00 -2.15023140E+00 -2.29600980E+00  2.40534360E+00
 -2.29600980E+00  2.40534360E+00  2.40534360E+00  2.40534360E+00 -5.28446700E-01
 -1.94978610E+00 -5.28446700E-01 -1.94978610E+00 -5.83113600E-01  2.44178820E+00
 -1.94978610E+00 -1.94978610E+00 -5.28446700E-01  2.46001050E+00 -2.15023140E+00
 -5.83113600E-01  2.44178820E+00  2.46001050E+00 -5.28446700E-01 -1.94978610E+00
 -2.29600980E+00  2.40534360E+00 -2.15023140E+00 -1.94978610E+00 -5.83113600E-01
  2.44178820E+00 -2.29600980E+00  2.40534360E+00  2.40534360E+00  2.44178820E+00
 -5.83113600E-01 -2.15023140E+00  2.40534360E+00 -2.15023140E+00 -2.29600980E+00
  2.40534360E+00 -2.29600980E+00  2.40534360E+00  2.40534360E+00  2.40534360E+00
 -5.28446700E-01 -1.94978610E+00 -5.28446700E-01 -1.94978610E+00 -5.83113600E-01
  2.44178820E+00 -1.94978610E+00 -1.94978610E+00 -5.28446700E-01  2.46001050E+00
 -2.15023140E+00 -5.83113600E-01  2.44178820E+00  2.46001050E+00 -5.28446700E-01
 -1.94978610E+00 -2.29600980E+00  2.40534360E+00 -2.15023140E+00 -1.94978610E+00
 -5.83113600E-01  2.44178820E+00 -2.29600980E+00  2.40534360E+00  2.40534360E+00
  2.44178820E+00 -5.83113600E-01 -2.15023140E+00  2.40534360E+00 -2.15023140E+00
 -2.29600980E+00  2.40534360E+00 -2.29600980E+00  2.40534360E+00  2.40534360E+00
  2.40534360E+00 -5.28446700E-01 -1.94978610E+00 -5.28446700E-01 -1.94978610E+00
 -5.83113600E-01  2.44178820E+00 -1.94978610E+00 -1.94978610E+00 -5.28446700E-01
  2.46001050E+00 -2.15023140E+00 -5.83113600E-01  2.44178820E+00  2.46001050E+00
 -5.28446700E-01 -1.94978610E+00 -2.29600980E+00  2.40534360E+00 -2.15023140E+00
 -1.94978610E+00 -5.83113600E-01  2.44178820E+00 -2.29600980E+00  2.40534360E+00
  2.40534360E+00  2.44178820E+00 -5.83113600E-01 -2.15023140E+00  2.40534360E+00
 -2.15023140E+00 -2.29600980E+00  2.40534360E+00 -2.29600980E+00  2.40534360E+00
  2.40534360E+00  2.40534360E+00 -5.28446700E-01 -1.94978610E+00 -5.28446700E-01
 -1.94978610E+00 -5.83113600E-01  2.44178820E+00 -1.94978610E+00 -1.94978610E+00
 -5.28446700E-01  2.46001050E+00 -2.15023140E+00 -5.83113600E-01  2.44178820E+00
  2.46001050E+00 -5.28446700E-01 -1.94978610E+00 -2.29600980E+00  2.40534360E+00
 -2.15023140E+00 -1.94978610E+00 -5.83113600E-01  2.44178820E+00 -2.29600980E+00
  2.40534360E+00  2.40534360E+00  2.44178820E+00 -5.83113600E-01 -2.15023140E+00
  2.40534360E+00 -2.15023140E+00 -2.29600980E+00  2.40534360E+00 -2.29600980E+00
  2.40534360E+00  2.40534360E+00  2.40534360E+00 -5.28446700E-01 -1.94978610E+00
 -5.28446700E-01 -1.94978610E+00 -5.83113600E-01  2.44178820E+00 -1.94978610E+00
 -1.94978610E+00 -5.28446700E-01  2.46001050E+00 -2.15023140E+00 -5.83113600E-01
  2.44178820E+00  2.46001050E+00 -5.28446700E-01 -1.94978610E+00 -2.29600980E+00
  2.40534360E+00 -2.15023140E+00 -1.94978610E+00 -5.83113600E-01  2.44178820E+00
 -2.29600980E+00  2.40534360E+00  2.40534360E+00  2.44178820E+00 -5.83113600E-01
 -2.15023140E+00  2.40534360E+00 -2.15023140E+00 -2.29600980E+00  2.40534360E+00
 -2.29600980E+00  2.40534360E+00  2.40534360E+00  2.40534360E+00 -5.28446700E-01
 -1.94978610E+00 -5.28446700E-01 -1.94978610E+00 -5.83113600E-01  2.44178820E+00
 -1.94978610E+00 -1.94978610E+00 -5.28446700E-01  2.46001050E+00 -2.15023140E+00
 -5.83113600E-01  2.44178820E+00  2.46001050E+00 -5.28446700E-01 -1.94978610E+00
 -2.29600980E+00  2.40534360E+00 -2.15023140E+00 -1.94978610E+00 -5.83113600E-01
  2.44178820E+00 -2.29600980E+00  2.40534360E+00  2.40534360E+00  2.44178820E+00
 -5.83113600E-01 -2.15023140E+00  2.40534360E+00 -2.15023140E+00 -2.29600980E+00
  2.40534360E+00 -2.29600980E+00  2.40534360E+00  2.40534360E+00  2.40534360E+00
 -5.28446700E-01 -1.94978610E+00 -5.28446700E-01 -1.94978610E+00 -5.83113600E-01
  2.44178820E+00 -1.94978610E+00 -1.94978610E+00 -5.28446700E-01  2.46001050E+00
 -2.15023140E+00 -5.83113600E-01  2.44178820E+00  2.46001050E+00 -5.28446700E-01
 -1.94978610E+00 -2.29600980E+00  2.40534360E+00 -2.15023140E+00 -1.94978610E+00
 -5.83113600E-01  2.44178820E+00 -2.29600980E+00  2.40534360E+00  2.40534360E+00
  2.44178820E+00 -5.83113600E-01 -2.15023140E+00  2.40534360E+00 -2.15023140E+00
 -2.29600980E+00  2.40534360E+00 -2.29600980E+00  2.40534360E+00  2.40534360E+00
  2.40534360E+00 -5.28446700E-01 -1.94978610E+00 -5.28446700E-01 -1.94978610E+00
 -5.83113600E-01  2.44178820E+00 -1.94978610E+00 -1.94978610E+00 -5.28446700E-01
  2.46001050E+00 -2.15023140E+00 -5.83113600E-01  2.44178820E+00  2.46001050E+00
 -5.28446700E-01 -1.94978610E+00 -2.29600980E+00  2.40534360E+00 -2.15023140E+00
 -1.94978610E+00 -5.83113600E-01  2.44178820E+00 -2.29600980E+00  2.40534360E+00
  2.40534360E+00  2.44178820E+00 -5.83113600E-01 -2.15023140E+00  2.40534360E+00
 -2.15023140E+00 -2.29600980E+00  2.40534360E+00 -2.29600980E+00  2.40534360E+00
  2.40534360E+00  2.40534360E+00 -5.28446700E-01 -1.94978610E+00 -5.28446700E-01
 -1.94978610E+00 -5.83113600E-01  2.44178820E+00 -1.94978610E+00 -1.94978610E+00
 -5.28446700E-01  2.46001050E+00 -2.15023140E+00 -5.83113600E-01  2.44178820E+00
  2.46001050E+00 -5.28446700E-01 -1.94978610E+00 -2.29600980E+00  2.40534360E+00
 -2.15023140E+00 -1.94978610E+00 -5.83113600E-01  2.44178820E+00 -2.29600980E+00
  2.40534360E+00  2.40534360E+00  2.44178820E+00 -5.83113600E-01 -2.15023140E+00
  2.40534360E+00 -2.15023140E+00 -2.29600980E+00  2.40534360E+00 -2.29600980E+00
  2.40534360E+00  2.40534360E+00  2.40534360E+00 -5.28446700E-01 -1.94978610E+00
 -5.28446700E-01 -1.94978610E+00 -5.83113600E-01  2.44178820E+00 -1.94978610E+00
 -1.94978610E+00 -5.28446700E-01  2.46001050E+00 -2.15023140E+00 -5.83113600E-01
  2.44178820E+00  2.46001050E+00 -5.28446700E-01 -1.94978610E+00 -2.29600980E+00
  2.40534360E+00 -2.15023140E+00 -1.94978610E+00 -5.83113600E-01  2.44178820E+00
 -2.29600980E+00  2.40534360E+00  2.40534360E+00  2.44178820E+00 -5.83113600E-01
 -2.15023140E+00  2.40534360E+00 -2.15023140E+00 -2.29600980E+00  2.40534360E+00
 -2.29600980E+00  2.40534360E+00  2.40534360E+00  2.40534360E+00 -5.28446700E-01
 -1.94978610E+00 -5.28446700E-01 -1.94978610E+00 -5.83113600E-01  2.44178820E+00
 -1.94978610E+00 -1.94978610E+00 -5.28446700E-01  2.46001050E+00 -2.15023140E+00
 -5.83113600E-01  2.44178820E+00  2.46001050E+00 -5.28446700E-01 -1.94978610E+00
 -2.29600980E+00  2.40534360E+00 -2.15023140E+00 -1.94978610E+00 -5.83113600E-01
  2.44178820E+00 -2.29600980E+00  2.40534360E+00  2.40534360E+00  2.44178820E+00
 -5.83113600E-01 -2.15023140E+00  2.40534360E+00 -2.15023140E+00 -2.29600980E+00
  2.40534360E+00 -2.29600980E+00  2.40534360E+00  2.40534360E+00  2.40534360E+00
 -5.28446700E-01 -1.94978610E+00 -5.28446700E-01 -1.94978610E+00 -5.83113600E-01
  2.44178820E+00 -1.94978610E+00 -1.94978610E+00 -5.28446700E-01  2.46001050E+00
 -2.15023140E+00 -5.83113600E-01  2.44178820E+00  2.46001050E+00 -5.28446700E-01
 -1.94978610E+00 -2.29600980E+00  2.40534360E+00 -2.15023140E+00 -1.94978610E+00
 -5.83113600E-01  2.44178820E+00 -2.29600980E+00  2.40534360E+00  2.40534360E+00
  2.44178820E+00 -5.83113600E-01 -2.15023140E+00  2.40534360E+00 -2.15023140E+00
 -2.29600980E+00  2.40534360E+00 -2.29600980E+00  2.40534360E+00  2.40534360E+00
  2.40534360E+00 -5.28446700E-01 -1.94978610E+00 -5.28446700E-01 -1.94978610E+00
 -5.83113600E-01  2.44178820E+00 -1.94978610E+00 -1.94978610E+00 -5.28446700E-01
  2.46001050E+00 -2.15023140E+00 -5.83113600E-01  2.44178820E+00  2.46001050E+00
 -5.28446700E-01 -1.94978610E+00 -2.29600980E+00  2.40534360E+00 -2.15023140E+00
 -1.94978610E+00 -5.83113600E-01  2.44178820E+00 -2.29600980E+00  2.40534360E+00
  2.40534360E+00  2.44178820E+00 -5.83113600E-01 -2.15023140E+00  2.40534360E+00
 -2.15023140E+00 -2.29600980E+00  2.40534360E+00 -2.29600980E+00  2.40534360E+00
  2.40534360E+00  2.40534360E+00 -5.28446700E-01 -1.94978610E+00 -5.28446700E-01
 -1.94978610E+00 -5.83113600E-01  2.44178820E+00 -1.94978610E+00 -1.94978610E+00
 -5.28446700E-01  2.46001050E+00 -2.15023140E+00 -5.83113600E-01  2.44178820E+00
  2.46001050E+00 -5.28446700E-01 -1.94978610E+00 -2.29600980E+00  2.40534360E+00
 -2.15023140E+00 -1.94978610E+00 -5.83113600E-01  2.44178820E+00 -2.29600980E+00
  2.40534360E+00  2.40534360E+00  2.44178820E+00 -5.83113600E-01 -2.15023140E+00
  2.40534360E+00 -2.15023140E+00 -2.29600980E+00  2.40534360E+00 -2.29600980E+00
  2.40534360E+00  2.40534360E+00  2.40534360E+00 -5.28446700E-01 -1.94978610E+00
 -5.28446700E-01 -1.94978610E+00 -5.83113600E-01  2.44178820E+00 -1.94978610E+00
 -1.94978610E+00 -5.28446700E-01  2.46001050E+00 -2.15023140E+00 -5.83113600E-01
  2.44178820E+00  2.46001050E+00 -5.28446700E-01 -1.94978610E+00 -2.29600980E+00
  2.40534360E+00 -2.15023140E+00 -1.94978610E+00 -5.83113600E-01  2.44178820E+00
 -2.29600980E+00  2.40534360E+00  2.40534360E+00  2.44178820E+00 -5.83113600E-01
 -2.15023140E+00  2.40534360E+00 -2.15023140E+00 -2.29600980E+00  2.40534360E+00
 -2.29600980E+00  2.40534360E+00  2.40534360E+00  2.40534360E+00 -5.28446700E-01
 -1.94978610E+00 -5.28446700E-01 -1.94978610E+00 -5.83113600E-01  2.44178820E+00
 -1.94978610E+00 -1.94978610E+00 -5.28446700E-01  2.46001050E+00 -2.15023140E+00
 -5.83113600E-01  2.44178820E+00  2.46001050E+00 -5.28446700E-01 -1.94978610E+00
 -2.29600980E+00  2.40534360E+00 -2.15023140E+00 -1.94978610E+00 -5.83113600E-01
  2.44178820E+00 -2.29600980E+00  2.40534360E+00  2.40534360E+00  2.44178820E+00
 -5.83113600E-01 -2.15023140E+00  2.40534360E+00 -2.15023140E+00 -2.29600980E+00
  2.40534360E+00 -2.29600980E+00  2.40534360E+00  2.40534360E+00  2.40534360E+00
 -5.28446700E-01 -1.94978610E+00 -5.28446700E-01 -1.94978610E+00 -5.83113600E-01
  2.44178820E+00 -1.94978610E+00 -1.94978610E+00 -5.28446700E-01  2.46001050E+00
 -2.15023140E+00 -5.83113600E-01  2.44178820E+00  2.46001050E+00 -5.28446700E-01
 -1.94978610E+00 -2.29600980E+00  2.40534360E+00 -2.15023140E+00 -1.94978610E+00
 -5.83113600E-01  2.44178820E+00 -2.29600980E+00  2.40534360E+00  2.40534360E+00
  2.44178820E+00 -5.83113600E-01 -2.15023140E+00  2.40534360E+00 -2.15023140E+00
 -2.29600980E+00  2.40534360E+00 -2.29600980E+00  2.40534360E+00  2.40534360E+00
  2.40534360E+00 -5.28446700E-01 -1.94978610E+00 -5.28446700E-01 -1.94978610E+00
 -5.83113600E-01  2.44178820E+00 -1.94978610E+00 -1.94978610E+00 -5.28446700E-01
  2.46001050E+00 -2.15023140E+00 -5.83113600E-01  2.44178820E+00  2.46001050E+00
 -5.28446700E-01 -1.94978610E+00 -2.29600980E+00  2.40534360E+00 -2.15023140E+00
 -1.94978610E+00 -5.83113600E-01  2.44178820E+00 -2.29600980E+00  2.40534360E+00
  2.40534360E+00  2.44178820E+00 -5.83113600E-01 -2.15023140E+00  2.40534360E+00
 -2.15023140E+00 -2.29600980E+00  2.40534360E+00 -2.29600980E+00  2.40534360E+00
  2.40534360E+00  2.40534360E+00 -5.28446700E-01 -1.94978610E+00 -5.28446700E-01
 -1.94978610E+00 -5.83113600E-01  2.44178820E+00 -1.94978610E+00 -1.94978610E+00
 -5.28446700E-01  2.46001050E+00 -2.15023140E+00 -5.83113600E-01  2.44178820E+00
  2.46001050E+00 -5.28446700E-01 -1.94978610E+00 -2.29600980E+00  2.40534360E+00
 -2.15023140E+00 -1.94978610E+00 -5.83113600E-01  2.44178820E+00 -2.29600980E+00
  2.40534360E+00  2.40534360E+00  2.44178820E+00 -5.83113600E-01 -2.15023140E+00
  2.40534360E+00 -2.15023140E+00 -2.29600980E+00  2.40534360E+00 -2.29600980E+00
  2.40534360E+00  2.40534360E+00  2.40534360E+00 -5.28446700E-01 -1.94978610E+00
 -5.28446700E-01 -1.94978610E+00 -5.83113600E-01  2.44178820E+00 -1.94978610E+00
 -1.94978610E+00 -5.28446700E-01  2.46001050E+00 -2.15023140E+00 -5.83113600E-01
  2.44178820E+00  2.46001050E+00 -5.28446700E-01 -1.94978610E+00 -2.29600980E+00
  2.40534360E+00 -2.15023140E+00 -1.94978610E+00 -5.83113600E-01  2.44178820E+00
 -2.29600980E+00  2.40534360E+00  2.40534360E+00  2.44178820E+00 -5.83113600E-01
 -2.15023140E+00  2.40534360E+00 -2.15023140E+00 -2.29600980E+00  2.40534360E+00
 -2.29600980E+00  2.40534360E+00  2.40534360E+00  2.40534360E+00 -5.28446700E-01
 -1.94978610E+00 -5.28446700E-01 -1.94978610E+00 -5.83113600E-01  2.44178820E+00
 -1.94978610E+00 -1.94978610E+00 -5.28446700E-01  2.46001050E+00 -2.15023140E+00
 -5.83113600E-01  2.44178820E+00  2.46001050E+00 -5.28446700E-01 -1.94978610E+00
 -2.29600980E+00  2.40534360E+00 -2.15023140E+00 -1.94978610E+00 -5.83113600E-01
  2.44178820E+00 -2.29600980E+00  2.40534360E+00  2.40534360E+00  2.44178820E+00
 -5.83113600E-01 -2.15023140E+00  2.40534360E+00 -2.15023140E+00 -2.29600980E+00
  2.40534360E+00 -2.29600980E+00  2.40534360E+00  2.40534360E+00  2.40534360E+00
 -5.28446700E-01 -1.94978610E+00 -5.28446700E-01 -1.94978610E+00 -5.83113600E-01
  2.44178820E+00 -1.94978610E+00 -1.94978610E+00 -5.28446700E-01  2.46001050E+00
 -2.15023140E+00 -5.83113600E-01  2.44178820E+00  2.46001050E+00 -5.28446700E-01
 -1.94978610E+00 -2.29600980E+00  2.40534360E+00 -2.15023140E+00 -1.94978610E+00
 -5.83113600E-01  2.44178820E+00 -2.29600980E+00  2.40534360E+00  2.40534360E+00
  2.44178820E+00 -5.83113600E-01 -2.15023140E+00  2.40534360E+00 -2.15023140E+00
 -2.29600980E+00  2.40534360E+00 -2.29600980E+00  2.40534360E+00  2.40534360E+00
  2.40534360E+00 -5.28446700E-01 -1.94978610E+00 -5.28446700E-01 -1.94978610E+00
 -5.83113600E-01  2.44178820E+00 -1.94978610E+00 -1.94978610E+00 -5.28446700E-01
  2.46001050E+00 -2.15023140E+00 -5.83113600E-01  2.44178820E+00  2.46001050E+00
 -5.28446700E-01 -1.94978610E+00 -2.29600980E+00  2.40534360E+00 -2.15023140E+00
 -1.94978610E+00 -5.83113600E-01  2.44178820E+00 -2.29600980E+00  2.40534360E+00
  2.40534360E+00  2.44178820E+00 -5.83113600E-01 -2.15023140E+00  2.40534360E+00
 -2.15023140E+00 -2.29600980E+00  2.40534360E+00 -2.29600980E+00  2.40534360E+00
  2.40534360E+00  2.40534360E+00 -5.28446700E-01 -1.94978610E+00 -5.28446700E-01
 -1.94978610E+00 -5.83113600E-01  2.44178820E+00 -1.94978610E+00 -1.94978610E+00
 -5.28446700E-01  2.46001050E+00 -2.15023140E+00 -5.83113600E-01  2.44178820E+00
  2.46001050E+00 -5.28446700E-01 -1.94978610E+00 -2.29600980E+00  2.40534360E+00
 -2.15023140E+00 -1.94978610E+00 -5.83113600E-01  2.44178820E+00 -2.29600980E+00
  2.40534360E+00  2.40534360E+00  2.44178820E+00 -5.83113600E-01 -2.15023140E+00
  2.40534360E+00 -2.15023140E+00 -2.29600980E+00  2.40534360E+00 -2.29600980E+00
  2.40534360E+00  2.40534360E+00  2.40534360E+00 -5.28446700E-01 -1.94978610E+00
 -5.28446700E-01 -1.94978610E+00 -5.83113600E-01  2.44178820E+00 -1.94978610E+00
 -1.94978610E+00 -5.28446700E-01  2.46001050E+00 -2.15023140E+00 -5.83113600E-01
  2.44178820E+00  2.46001050E+00 -5.28446700E-01 -1.94978610E+00 -2.29600980E+00
  2.40534360E+00 -2.15023140E+00 -1.94978610E+00 -5.83113600E-01  2.44178820E+00
 -2.29600980E+00  2.40534360E+00  2.40534360E+00  2.44178820E+00 -5.83113600E-01
 -2.15023140E+00  2.40534360E+00 -2.15023140E+00 -2.29600980E+00  2.40534360E+00
 -2.29600980E+00  2.40534360E+00  2.40534360E+00  2.40534360E+00 -5.28446700E-01
 -1.94978610E+00 -5.28446700E-01 -1.94978610E+00 -5.83113600E-01  2.44178820E+00
 -1.94978610E+00 -1.94978610E+00 -5.28446700E-01  2.46001050E+00 -2.15023140E+00
 -5.83113600E-01  2.44178820E+00  2.46001050E+00 -5.28446700E-01 -1.94978610E+00
 -2.29600980E+00  2.40534360E+00 -2.15023140E+00 -1.94978610E+00 -5.83113600E-01
  2.44178820E+00 -2.29600980E+00  2.40534360E+00  2.40534360E+00  2.44178820E+00
 -5.83113600E-01 -2.15023140E+00  2.40534360E+00 -2.15023140E+00 -2.29600980E+00
  2.40534360E+00 -2.29600980E+00  2.40534360E+00  2.40534360E+00  2.40534360E+00
 -5.28446700E-01 -1.94978610E+00 -5.28446700E-01 -1.94978610E+00 -5.83113600E-01
  2.44178820E+00 -1.94978610E+00 -1.94978610E+00 -5.28446700E-01  2.46001050E+00
 -2.15023140E+00 -5.83113600E-01  2.44178820E+00  2.46001050E+00 -5.28446700E-01
 -1.94978610E+00 -2.29600980E+00  2.40534360E+00 -2.15023140E+00 -1.94978610E+00
 -5.83113600E-01  2.44178820E+00 -2.29600980E+00  2.40534360E+00  2.40534360E+00
  2.44178820E+00 -5.83113600E-01 -2.15023140E+00  2.40534360E+00 -2.15023140E+00
 -2.29600980E+00  2.40534360E+00 -2.29600980E+00  2.40534360E+00  2.40534360E+00
  2.40534360E+00 -5.28446700E-01 -1.94978610E+00 -5.28446700E-01 -1.94978610E+00
 -5.83113600E-01  2.44178820E+00 -1.94978610E+00 -1.94978610E+00 -5.28446700E-01
  2.46001050E+00 -2.15023140E+00 -5.83113600E-01  2.44178820E+00  2.46001050E+00
 -5.28446700E-01 -1.94978610E+00 -2.29600980E+00  2.40534360E+00 -2.15023140E+00
 -1.94978610E+00 -5.83113600E-01  2.44178820E+00 -2.29600980E+00  2.40534360E+00
  2.40534360E+00  2.44178820E+00 -5.83113600E-01 -2.15023140E+00  2.40534360E+00
 -2.15023140E+00 -2.29600980E+00  2.40534360E+00 -2.29600980E+00  2.40534360E+00
  2.40534360E+00  2.40534360E+00 -5.28446700E-01 -1.94978610E+00 -5.28446700E-01
 -1.94978610E+00 -5.83113600E-01  2.44178820E+00 -1.94978610E+00 -1.94978610E+00
 -5.28446700E-01  2.46001050E+00 -2.15023140E+00 -5.83113600E-01  2.44178820E+00
  2.46001050E+00 -5.28446700E-01 -1.94978610E+00 -2.29600980E+00  2.40534360E+00
 -2.15023140E+00 -1.94978610E+00 -5.83113600E-01  2.44178820E+00 -2.29600980E+00
  2.40534360E+00  2.40534360E+00  2.44178820E+00 -5.83113600E-01 -2.15023140E+00
  2.40534360E+00 -2.15023140E+00 -2.29600980E+00  2.40534360E+00 -2.29600980E+00
  2.40534360E+00  2.40534360E+00  2.40534360E+00 -5.28446700E-01 -1.94978610E+00
 -5.28446700E-01 -1.94978610E+00 -5.83113600E-01  2.44178820E+00 -1.94978610E+00
 -1.94978610E+00 -5.28446700E-01  2.46001050E+00 -2.15023140E+00 -5.83113600E-01
  2.44178820E+00  2.46001050E+00 -5.28446700E-01 -1.94978610E+00 -2.29600980E+00
  2.40534360E+00 -2.15023140E+00 -1.94978610E+00 -5.83113600E-01  2.44178820E+00
 -2.29600980E+00  2.40534360E+00  2.40534360E+00  2.44178820E+00 -5.83113600E-01
 -2.15023140E+00  2.40534360E+00 -2.15023140E+00 -2.29600980E+00  2.40534360E+00
 -2.29600980E+00  2.40534360E+00  2.40534360E+00  2.40534360E+00 -5.28446700E-01
 -1.94978610E+00 -5.28446700E-01 -1.94978610E+00 -5.83113600E-01  2.44178820E+00
 -1.94978610E+00 -1.94978610E+00 -5.28446700E-01  2.46001050E+00 -2.15023140E+00
 -5.83113600E-01  2.44178820E+00  2.46001050E+00 -5.28446700E-01 -1.94978610E+00
 -2.29600980E+00  2.40534360E+00 -2.15023140E+00 -1.94978610E+00 -5.83113600E-01
  2.44178820E+00 -2.29600980E+00  2.40534360E+00  2.40534360E+00  2.44178820E+00
 -5.83113600E-01 -2.15023140E+00  2.40534360E+00 -2.15023140E+00 -2.29600980E+00
  2.40534360E+00 -2.29600980E+00  2.40534360E+00  2.40534360E+00  2.40534360E+00
 -5.28446700E-01 -1.94978610E+00 -5.28446700E-01 -1.94978610E+00 -5.83113600E-01
  2.44178820E+00 -1.94978610E+00 -1.94978610E+00 -5.28446700E-01  2.46001050E+00
 -2.15023140E+00 -5.83113600E-01  2.44178820E+00  2.46001050E+00 -5.28446700E-01
 -1.94978610E+00 -2.29600980E+00  2.40534360E+00 -2.15023140E+00 -1.94978610E+00
 -5.83113600E-01  2.44178820E+00 -2.29600980E+00  2.40534360E+00  2.40534360E+00
  2.44178820E+00 -5.83113600E-01 -2.15023140E+00  2.40534360E+00 -2.15023140E+00
 -2.29600980E+00  2.40534360E+00 -2.29600980E+00  2.40534360E+00  2.40534360E+00
  2.40534360E+00 -5.28446700E-01 -1.94978610E+00 -5.28446700E-01 -1.94978610E+00
 -5.83113600E-01  2.44178820E+00 -1.94978610E+00 -1.94978610E+00 -5.28446700E-01
  2.46001050E+00 -2.15023140E+00 -5.83113600E-01  2.44178820E+00  2.46001050E+00
 -5.28446700E-01 -1.94978610E+00 -2.29600980E+00  2.40534360E+00 -2.15023140E+00
 -1.94978610E+00 -5.83113600E-01  2.44178820E+00 -2.29600980E+00  2.40534360E+00
  2.40534360E+00  2.44178820E+00 -5.83113600E-01 -2.15023140E+00  2.40534360E+00
 -2.15023140E+00 -2.29600980E+00  2.40534360E+00 -2.29600980E+00  2.40534360E+00
  2.40534360E+00  2.40534360E+00 -5.28446700E-01 -1.94978610E+00 -5.28446700E-01
 -1.94978610E+00 -5.83113600E-01  2.44178820E+00 -1.94978610E+00 -1.94978610E+00
 -5.28446700E-01  2.46001050E+00 -2.15023140E+00 -5.83113600E-01  2.44178820E+00
  2.46001050E+00 -5.28446700E-01 -1.94978610E+00 -2.29600980E+00  2.40534360E+00
 -2.15023140E+00 -1.94978610E+00 -5.83113600E-01  2.44178820E+00 -2.29600980E+00
  2.40534360E+00  2.40534360E+00  2.44178820E+00 -5.83113600E-01 -2.15023140E+00
  2.40534360E+00 -2.15023140E+00 -2.29600980E+00  2.40534360E+00 -2.29600980E+00
  2.40534360E+00  2.40534360E+00  2.40534360E+00 -5.28446700E-01 -1.94978610E+00
 -5.28446700E-01 -1.94978610E+00 -5.83113600E-01  2.44178820E+00 -1.94978610E+00
 -1.94978610E+00 -5.28446700E-01  2.46001050E+00 -2.15023140E+00 -5.83113600E-01
  2.44178820E+00  2.46001050E+00 -5.28446700E-01 -1.94978610E+00 -2.29600980E+00
  2.40534360E+00 -2.15023140E+00 -1.94978610E+00 -5.83113600E-01  2.44178820E+00
 -2.29600980E+00  2.40534360E+00  2.40534360E+00  2.44178820E+00 -5.83113600E-01
 -2.15023140E+00  2.40534360E+00 -2.15023140E+00 -2.29600980E+00  2.40534360E+00
 -2.29600980E+00  2.40534360E+00  2.40534360E+00  2.40534360E+00 -5.28446700E-01
 -1.94978610E+00 -5.28446700E-01 -1.94978610E+00 -5.83113600E-01  2.44178820E+00
 -1.94978610E+00 -1.94978610E+00 -5.28446700E-01  2.46001050E+00 -2.15023140E+00
 -5.83113600E-01  2.44178820E+00  2.46001050E+00 -5.28446700E-01 -1.94978610E+00
 -2.29600980E+00  2.40534360E+00 -2.15023140E+00 -1.94978610E+00 -5.83113600E-01
  2.44178820E+00 -2.29600980E+00  2.40534360E+00  2.40534360E+00  2.44178820E+00
 -5.83113600E-01 -2.15023140E+00  2.40534360E+00 -2.15023140E+00 -2.29600980E+00
  2.40534360E+00 -2.29600980E+00  2.40534360E+00  2.40534360E+00  2.40534360E+00
 -5.28446700E-01 -1.94978610E+00 -5.28446700E-01 -1.94978610E+00 -5.83113600E-01
  2.44178820E+00 -1.94978610E+00 -1.94978610E+00 -5.28446700E-01  2.46001050E+00
 -2.15023140E+00 -5.83113600E-01  2.44178820E+00  2.46001050E+00 -5.28446700E-01
 -1.94978610E+00 -2.29600980E+00  2.40534360E+00 -2.15023140E+00 -1.94978610E+00
 -5.83113600E-01  2.44178820E+00 -2.29600980E+00  2.40534360E+00  2.40534360E+00
  2.44178820E+00 -5.83113600E-01 -2.15023140E+00  2.40534360E+00 -2.15023140E+00
 -2.29600980E+00  2.40534360E+00 -2.29600980E+00  2.40534360E+00  2.40534360E+00
  2.40534360E+00 -5.28446700E-01 -1.94978610E+00 -5.28446700E-01 -1.94978610E+00
 -5.83113600E-01  2.44178820E+00 -1.94978610E+00 -1.94978610E+00 -5.28446700E-01
  2.46001050E+00 -2.15023140E+00 -5.83113600E-01  2.44178820E+00  2.46001050E+00
 -5.28446700E-01 -1.94978610E+00 -2.29600980E+00  2.40534360E+00 -2.15023140E+00
 -1.94978610E+00 -5.83113600E-01  2.44178820E+00 -2.29600980E+00  2.40534360E+00
  2.40534360E+00  2.44178820E+00 -5.83113600E-01 -2.15023140E+00  2.40534360E+00
 -2.15023140E+00 -2.29600980E+00  2.40534360E+00 -2.29600980E+00  2.40534360E+00
  2.40534360E+00  2.40534360E+00 -5.28446700E-01 -1.94978610E+00 -5.28446700E-01
 -1.94978610E+00 -5.83113600E-01  2.44178820E+00 -1.94978610E+00 -1.94978610E+00
 -5.28446700E-01  2.46001050E+00 -2.15023140E+00 -5.83113600E-01  2.44178820E+00
  2.46001050E+00 -5.28446700E-01 -1.94978610E+00 -2.29600980E+00  2.40534360E+00
 -2.15023140E+00 -1.94978610E+00 -5.83113600E-01  2.44178820E+00 -2.29600980E+00
  2.40534360E+00  2.40534360E+00  2.44178820E+00 -5.83113600E-01 -2.15023140E+00
  2.40534360E+00 -2.15023140E+00 -2.29600980E+00  2.40534360E+00 -2.29600980E+00
  2.40534360E+00  2.40534360E+00  2.40534360E+00 -5.28446700E-01 -1.94978610E+00
 -5.28446700E-01 -1.94978610E+00 -5.83113600E-01  2.44178820E+00 -1.94978610E+00
 -1.94978610E+00 -5.28446700E-01  2.46001050E+00 -2.15023140E+00 -5.83113600E-01
  2.44178820E+00  2.46001050E+00 -5.28446700E-01 -1.94978610E+00 -2.29600980E+00
  2.40534360E+00 -2.15023140E+00 -1.94978610E+00 -5.83113600E-01  2.44178820E+00
 -2.29600980E+00  2.40534360E+00  2.40534360E+00  2.44178820E+00 -5.83113600E-01
 -2.15023140E+00  2.40534360E+00 -2.15023140E+00 -2.29600980E+00  2.40534360E+00
 -2.29600980E+00  2.40534360E+00  2.40534360E+00  2.40534360E+00 -5.28446700E-01
 -1.94978610E+00 -5.28446700E-01 -1.94978610E+00 -5.83113600E-01  2.44178820E+00
 -1.94978610E+00 -1.94978610E+00 -5.28446700E-01  2.46001050E+00 -2.15023140E+00
 -5.83113600E-01  2.44178820E+00  2.46001050E+00 -5.28446700E-01 -1.94978610E+00
 -2.29600980E+00  2.40534360E+00 -2.15023140E+00 -1.94978610E+00 -5.83113600E-01
  2.44178820E+00 -2.29600980E+00  2.40534360E+00  2.40534360E+00  2.44178820E+00
 -5.83113600E-01 -2.15023140E+00  2.40534360E+00 -2.15023140E+00 -2.29600980E+00
  2.40534360E+00 -2.29600980E+00  2.40534360E+00  2.40534360E+00  2.40534360E+00
 -5.28446700E-01 -1.94978610E+00 -5.28446700E-01 -1.94978610E+00 -5.83113600E-01
  2.44178820E+00 -1.94978610E+00 -1.94978610E+00 -5.28446700E-01  2.46001050E+00
 -2.15023140E+00 -5.83113600E-01  2.44178820E+00  2.46001050E+00 -5.28446700E-01
 -1.94978610E+00 -2.29600980E+00  2.40534360E+00 -2.15023140E+00 -1.94978610E+00
 -5.83113600E-01  2.44178820E+00 -2.29600980E+00  2.40534360E+00  2.40534360E+00
  2.44178820E+00 -5.83113600E-01 -2.15023140E+00  2.40534360E+00 -2.15023140E+00
 -2.29600980E+00  2.40534360E+00 -2.29600980E+00  2.40534360E+00  2.40534360E+00
  2.40534360E+00 -5.28446700E-01 -1.94978610E+00 -5.28446700E-01 -1.94978610E+00
 -5.83113600E-01  2.44178820E+00 -1.94978610E+00 -1.94978610E+00 -5.28446700E-01
  2.46001050E+00 -2.15023140E+00 -5.83113600E-01  2.44178820E+00  2.46001050E+00
 -5.28446700E-01 -1.94978610E+00 -2.29600980E+00  2.40534360E+00 -2.15023140E+00
 -1.94978610E+00 -5.83113600E-01  2.44178820E+00 -2.29600980E+00  2.40534360E+00
  2.40534360E+00  2.44178820E+00 -5.83113600E-01 -2.15023140E+00  2.40534360E+00
 -2.15023140E+00 -2.29600980E+00  2.40534360E+00 -2.29600980E+00  2.40534360E+00
  2.40534360E+00  2.40534360E+00 -5.28446700E-01 -1.94978610E+00 -5.28446700E-01
 -1.94978610E+00 -5.83113600E-01  2.44178820E+00 -1.94978610E+00 -1.94978610E+00
 -5.28446700E-01  2.46001050E+00 -2.15023140E+00 -5.83113600E-01  2.44178820E+00
  2.46001050E+00 -5.28446700E-01 -1.94978610E+00 -2.29600980E+00  2.40534360E+00
 -2.15023140E+00 -1.94978610E+00 -5.83113600E-01  2.44178820E+00 -2.29600980E+00
  2.40534360E+00  2.40534360E+00  2.44178820E+00 -5.83113600E-01 -2.15023140E+00
  2.40534360E+00 -2.15023140E+00 -2.29600980E+00  2.40534360E+00 -2.29600980E+00
  2.40534360E+00  2.40534360E+00  2.40534360E+00 -5.28446700E-01 -1.94978610E+00
 -5.28446700E-01 -1.94978610E+00 -5.83113600E-01  2.44178820E+00 -1.94978610E+00
 -1.94978610E+00 -5.28446700E-01  2.46001050E+00 -2.15023140E+00 -5.83113600E-01
  2.44178820E+00  2.46001050E+00 -5.28446700E-01 -1.94978610E+00 -2.29600980E+00
  2.40534360E+00 -2.15023140E+00 -1.94978610E+00 -5.83113600E-01  2.44178820E+00
 -2.29600980E+00  2.40534360E+00  2.40534360E+00  2.44178820E+00 -5.83113600E-01
 -2.15023140E+00  2.40534360E+00 -2.15023140E+00 -2.29600980E+00  2.40534360E+00
 -2.29600980E+00  2.40534360E+00  2.40534360E+00  2.40534360E+00 -5.28446700E-01
 -1.94978610E+00 -5.28446700E-01 -1.94978610E+00 -5.83113600E-01  2.44178820E+00
 -1.94978610E+00 -1.94978610E+00 -5.28446700E-01  2.46001050E+00 -2.15023140E+00
 -5.83113600E-01  2.44178820E+00  2.46001050E+00 -5.28446700E-01 -1.94978610E+00
 -2.29600980E+00  2.40534360E+00 -2.15023140E+00 -1.94978610E+00 -5.83113600E-01
  2.44178820E+00 -2.29600980E+00  2.40534360E+00  2.40534360E+00  2.44178820E+00
 -5.83113600E-01 -2.15023140E+00  2.40534360E+00 -2.15023140E+00 -2.29600980E+00
  2.40534360E+00 -2.29600980E+00  2.40534360E+00  2.40534360E+00  2.40534360E+00
 -5.28446700E-01 -1.94978610E+00 -5.28446700E-01 -1.94978610E+00 -5.83113600E-01
  2.44178820E+00 -1.94978610E+00 -1.94978610E+00 -5.28446700E-01  2.46001050E+00
 -2.15023140E+00 -5.83113600E-01  2.44178820E+00  2.46001050E+00 -5.28446700E-01
 -1.94978610E+00 -2.29600980E+00  2.40534360E+00 -2.15023140E+00 -1.94978610E+00
 -5.83113600E-01  2.44178820E+00 -2.29600980E+00  2.40534360E+00  2.40534360E+00
  2.44178820E+00 -5.83113600E-01 -2.15023140E+00  2.40534360E+00 -2.15023140E+00
 -2.29600980E+00  2.40534360E+00 -2.29600980E+00  2.40534360E+00  2.40534360E+00
  2.40534360E+00 -5.28446700E-01 -1.94978610E+00 -5.28446700E-01 -1.94978610E+00
 -5.83113600E-01  2.44178820E+00 -1.94978610E+00 -1.94978610E+00 -5.28446700E-01
  2.46001050E+00 -2.15023140E+00 -5.83113600E-01  2.44178820E+00  2.46001050E+00
 -5.28446700E-01 -1.94978610E+00 -2.29600980E+00  2.40534360E+00 -2.15023140E+00
 -1.94978610E+00 -5.83113600E-01  2.44178820E+00 -2.29600980E+00  2.40534360E+00
  2.40534360E+00  2.44178820E+00 -5.83113600E-01 -2.15023140E+00  2.40534360E+00
 -2.15023140E+00 -2.29600980E+00  2.40534360E+00 -2.29600980E+00  2.40534360E+00
  2.40534360E+00  2.40534360E+00 -5.28446700E-01 -1.94978610E+00 -5.28446700E-01
 -1.94978610E+00 -5.83113600E-01  2.44178820E+00 -1.94978610E+00 -1.94978610E+00
 -5.28446700E-01  2.46001050E+00 -2.15023140E+00 -5.83113600E-01  2.44178820E+00
  2.46001050E+00 -5.28446700E-01 -1.94978610E+00 -2.29600980E+00  2.40534360E+00
 -2.15023140E+00 -1.94978610E+00 -5.83113600E-01  2.44178820E+00 -2.29600980E+00
  2.40534360E+00  2.40534360E+00  2.44178820E+00 -5.83113600E-01 -2.15023140E+00
  2.40534360E+00 -2.15023140E+00 -2.29600980E+00  2.40534360E+00 -2.29600980E+00
  2.40534360E+00  2.40534360E+00  2.40534360E+00 -5.28446700E-01 -1.94978610E+00
 -5.28446700E-01 -1.94978610E+00 -5.83113600E-01  2.44178820E+00 -1.94978610E+00
 -1.94978610E+00 -5.28446700E-01  2.46001050E+00 -2.15023140E+00 -5.83113600E-01
  2.44178820E+00  2.46001050E+00 -5.28446700E-01 -1.94978610E+00 -2.29600980E+00
  2.40534360E+00 -2.15023140E+00 -1.94978610E+00 -5.83113600E-01  2.44178820E+00
 -2.29600980E+00  2.40534360E+00  2.40534360E+00  2.44178820E+00 -5.83113600E-01
 -2.15023140E+00  2.40534360E+00 -2.15023140E+00 -2.29600980E+00  2.40534360E+00
 -2.29600980E+00  2.40534360E+00  2.40534360E+00  2.40534360E+00 -5.28446700E-01
 -1.94978610E+00 -5.28446700E-01 -1.94978610E+00 -5.83113600E-01  2.44178820E+00
 -1.94978610E+00 -1.94978610E+00 -5.28446700E-01  2.46001050E+00 -2.15023140E+00
 -5.83113600E-01  2.44178820E+00  2.46001050E+00 -5.28446700E-01 -1.94978610E+00
 -2.29600980E+00  2.40534360E+00 -2.15023140E+00 -1.94978610E+00 -5.83113600E-01
  2.44178820E+00 -2.29600980E+00  2.40534360E+00  2.40534360E+00  2.44178820E+00
 -5.83113600E-01 -2.15023140E+00  2.40534360E+00 -2.15023140E+00 -2.29600980E+00
  2.40534360E+00 -2.29600980E+00  2.40534360E+00  2.40534360E+00  2.40534360E+00
 -5.28446700E-01 -1.94978610E+00 -5.28446700E-01 -1.94978610E+00 -5.83113600E-01
  2.44178820E+00 -1.94978610E+00 -1.94978610E+00 -5.28446700E-01  2.46001050E+00
 -2.15023140E+00 -5.83113600E-01  2.44178820E+00  2.46001050E+00 -5.28446700E-01
 -1.94978610E+00 -2.29600980E+00  2.40534360E+00 -2.15023140E+00 -1.94978610E+00
 -5.83113600E-01  2.44178820E+00 -2.29600980E+00  2.40534360E+00  2.40534360E+00
  2.44178820E+00 -5.83113600E-01 -2.15023140E+00  2.40534360E+00 -2.15023140E+00
 -2.29600980E+00  2.40534360E+00 -2.29600980E+00  2.40534360E+00  2.40534360E+00
  2.40534360E+00 -5.28446700E-01 -1.94978610E+00 -5.28446700E-01 -1.94978610E+00
 -5.83113600E-01  2.44178820E+00 -1.94978610E+00 -1.94978610E+00 -5.28446700E-01
  2.46001050E+00 -2.15023140E+00 -5.83113600E-01  2.44178820E+00  2.46001050E+00
 -5.28446700E-01 -1.94978610E+00 -2.29600980E+00  2.40534360E+00 -2.15023140E+00
 -1.94978610E+00 -5.83113600E-01  2.44178820E+00 -2.29600980E+00  2.40534360E+00
  2.40534360E+00  2.44178820E+00 -5.83113600E-01 -2.15023140E+00  2.40534360E+00
 -2.15023140E+00 -2.29600980E+00  2.40534360E+00 -2.29600980E+00  2.40534360E+00
  2.40534360E+00  2.40534360E+00 -5.28446700E-01 -1.94978610E+00 -5.28446700E-01
 -1.94978610E+00 -5.83113600E-01  2.44178820E+00 -1.94978610E+00 -1.94978610E+00
 -5.28446700E-01  2.46001050E+00 -2.15023140E+00 -5.83113600E-01  2.44178820E+00
  2.46001050E+00 -5.28446700E-01 -1.94978610E+00 -2.29600980E+00  2.40534360E+00
 -2.15023140E+00 -1.94978610E+00 -5.83113600E-01  2.44178820E+00 -2.29600980E+00
  2.40534360E+00  2.40534360E+00  2.44178820E+00 -5.83113600E-01 -2.15023140E+00
  2.40534360E+00 -2.15023140E+00 -2.29600980E+00  2.40534360E+00 -2.29600980E+00
  2.40534360E+00  2.40534360E+00  2.40534360E+00 -5.28446700E-01 -1.94978610E+00
 -5.28446700E-01 -1.94978610E+00 -5.83113600E-01  2.44178820E+00 -1.94978610E+00
 -1.94978610E+00 -5.28446700E-01  2.46001050E+00 -2.15023140E+00 -5.83113600E-01
  2.44178820E+00  2.46001050E+00 -5.28446700E-01 -1.94978610E+00 -2.29600980E+00
  2.40534360E+00 -2.15023140E+00 -1.94978610E+00 -5.83113600E-01  2.44178820E+00
 -2.29600980E+00  2.40534360E+00  2.40534360E+00  2.44178820E+00 -5.83113600E-01
 -2.15023140E+00  2.40534360E+00 -2.15023140E+00 -2.29600980E+00  2.40534360E+00
 -2.29600980E+00  2.40534360E+00  2.40534360E+00  2.40534360E+00 -5.28446700E-01
 -1.94978610E+00 -5.28446700E-01 -1.94978610E+00 -5.83113600E-01  2.44178820E+00
 -1.94978610E+00 -1.94978610E+00 -5.28446700E-01  2.46001050E+00 -2.15023140E+00
 -5.83113600E-01  2.44178820E+00  2.46001050E+00 -5.28446700E-01 -1.94978610E+00
 -2.29600980E+00  2.40534360E+00 -2.15023140E+00 -1.94978610E+00 -5.83113600E-01
  2.44178820E+00 -2.29600980E+00  2.40534360E+00  2.40534360E+00  2.44178820E+00
 -5.83113600E-01 -2.15023140E+00  2.40534360E+00 -2.15023140E+00 -2.29600980E+00
  2.40534360E+00 -2.29600980E+00  2.40534360E+00  2.40534360E+00  2.40534360E+00
 -5.28446700E-01 -1.94978610E+00 -5.28446700E-01 -1.94978610E+00 -5.83113600E-01
  2.44178820E+00 -1.94978610E+00 -1.94978610E+00 -5.28446700E-01  2.46001050E+00
 -2.15023140E+00 -5.83113600E-01  2.44178820E+00  2.46001050E+00 -5.28446700E-01
 -1.94978610E+00 -2.29600980E+00  2.40534360E+00 -2.15023140E+00 -1.94978610E+00
 -5.83113600E-01  2.44178820E+00 -2.29600980E+00  2.40534360E+00  2.40534360E+00
  2.44178820E+00 -5.83113600E-01 -2.15023140E+00  2.40534360E+00 -2.15023140E+00
 -2.29600980E+00  2.40534360E+00 -2.29600980E+00  2.40534360E+00  2.40534360E+00
  2.40534360E+00 -5.28446700E-01 -1.94978610E+00 -5.28446700E-01 -1.94978610E+00
 -5.83113600E-01  2.44178820E+00 -1.94978610E+00 -1.94978610E+00 -5.28446700E-01
  2.46001050E+00 -2.15023140E+00 -5.83113600E-01  2.44178820E+00  2.46001050E+00
 -5.28446700E-01 -1.94978610E+00 -2.29600980E+00  2.40534360E+00 -2.15023140E+00
 -1.94978610E+00 -5.83113600E-01  2.44178820E+00 -2.29600980E+00  2.40534360E+00
  2.40534360E+00  2.44178820E+00 -5.83113600E-01 -2.15023140E+00  2.40534360E+00
 -2.15023140E+00 -2.29600980E+00  2.40534360E+00 -2.29600980E+00  2.40534360E+00
  2.40534360E+00  2.40534360E+00 -5.28446700E-01 -1.94978610E+00 -5.28446700E-01
 -1.94978610E+00 -5.83113600E-01  2.44178820E+00 -1.94978610E+00 -1.94978610E+00
 -5.28446700E-01  2.46001050E+00 -2.15023140E+00 -5.83113600E-01  2.44178820E+00
  2.46001050E+00 -5.28446700E-01 -1.94978610E+00 -2.29600980E+00  2.40534360E+00
 -2.15023140E+00 -1.94978610E+00 -5.83113600E-01  2.44178820E+00 -2.29600980E+00
  2.40534360E+00  2.40534360E+00  2.44178820E+00 -5.83113600E-01 -2.15023140E+00
  2.40534360E+00 -2.15023140E+00 -2.29600980E+00  2.40534360E+00 -2.29600980E+00
  2.40534360E+00  2.40534360E+00  2.40534360E+00 -5.28446700E-01 -1.94978610E+00
 -5.28446700E-01 -1.94978610E+00 -5.83113600E-01  2.44178820E+00 -1.94978610E+00
 -1.94978610E+00 -5.28446700E-01  2.46001050E+00 -2.15023140E+00 -5.83113600E-01
  2.44178820E+00  2.46001050E+00 -5.28446700E-01 -1.94978610E+00 -2.29600980E+00
  2.40534360E+00 -2.15023140E+00 -1.94978610E+00 -5.83113600E-01  2.44178820E+00
 -2.29600980E+00  2.40534360E+00  2.40534360E+00  2.44178820E+00 -5.83113600E-01
 -2.15023140E+00  2.40534360E+00 -2.15023140E+00 -2.29600980E+00  2.40534360E+00
 -2.29600980E+00  2.40534360E+00  2.40534360E+00  2.40534360E+00 -5.28446700E-01
 -1.94978610E+00 -5.28446700E-01 -1.94978610E+00 -5.83113600E-01  2.44178820E+00
 -1.94978610E+00 -1.94978610E+00 -5.28446700E-01  2.46001050E+00 -2.15023140E+00
 -5.83113600E-01  2.44178820E+00  2.46001050E+00 -5.28446700E-01 -1.94978610E+00
 -2.29600980E+00  2.40534360E+00 -2.15023140E+00 -1.94978610E+00 -5.83113600E-01
  2.44178820E+00 -2.29600980E+00  2.40534360E+00  2.40534360E+00  2.44178820E+00
 -5.83113600E-01 -2.15023140E+00  2.40534360E+00 -2.15023140E+00 -2.29600980E+00
  2.40534360E+00 -2.29600980E+00  2.40534360E+00  2.40534360E+00  2.40534360E+00
 -5.28446700E-01 -1.94978610E+00 -5.28446700E-01 -1.94978610E+00 -5.83113600E-01
  2.44178820E+00 -1.94978610E+00 -1.94978610E+00 -5.28446700E-01  2.46001050E+00
 -2.15023140E+00 -5.83113600E-01  2.44178820E+00  2.46001050E+00 -5.28446700E-01
 -1.94978610E+00 -2.29600980E+00  2.40534360E+00 -2.15023140E+00 -1.94978610E+00
 -5.83113600E-01  2.44178820E+00 -2.29600980E+00  2.40534360E+00  2.40534360E+00
  2.44178820E+00 -5.83113600E-01 -2.15023140E+00  2.40534360E+00 -2.15023140E+00
 -2.29600980E+00  2.40534360E+00 -2.29600980E+00  2.40534360E+00  2.40534360E+00
  2.40534360E+00 -5.28446700E-01 -1.94978610E+00 -5.28446700E-01 -1.94978610E+00
 -5.83113600E-01  2.44178820E+00 -1.94978610E+00 -1.94978610E+00 -5.28446700E-01
  2.46001050E+00 -2.15023140E+00 -5.83113600E-01  2.44178820E+00  2.46001050E+00
 -5.28446700E-01 -1.94978610E+00 -2.29600980E+00  2.40534360E+00 -2.15023140E+00
 -1.94978610E+00 -5.83113600E-01  2.44178820E+00 -2.29600980E+00  2.40534360E+00
  2.40534360E+00  2.44178820E+00 -5.83113600E-01 -2.15023140E+00  2.40534360E+00
 -2.15023140E+00 -2.29600980E+00  2.40534360E+00 -2.29600980E+00  2.40534360E+00
  2.40534360E+00  2.40534360E+00 -5.28446700E-01 -1.94978610E+00 -5.28446700E-01
 -1.94978610E+00 -5.83113600E-01  2.44178820E+00 -1.94978610E+00 -1.94978610E+00
 -5.28446700E-01  2.46001050E+00 -2.15023140E+00 -5.83113600E-01  2.44178820E+00
  2.46001050E+00 -5.28446700E-01 -1.94978610E+00 -2.29600980E+00  2.40534360E+00
 -2.15023140E+00 -1.94978610E+00 -5.83113600E-01  2.44178820E+00 -2.29600980E+00
  2.40534360E+00  2.40534360E+00  2.44178820E+00 -5.83113600E-01 -2.15023140E+00
  2.40534360E+00 -2.15023140E+00 -2.29600980E+00  2.40534360E+00 -2.29600980E+00
  2.40534360E+00  2.40534360E+00  2.40534360E+00 -5.28446700E-01 -1.94978610E+00
 -5.28446700E-01 -1.94978610E+00 -5.83113600E-01  2.44178820E+00 -1.94978610E+00
 -1.94978610E+00 -5.28446700E-01  2.46001050E+00 -2.15023140E+00 -5.83113600E-01
  2.44178820E+00  2.46001050E+00 -5.28446700E-01 -1.94978610E+00 -2.29600980E+00
  2.40534360E+00 -2.15023140E+00 -1.94978610E+00 -5.83113600E-01  2.44178820E+00
 -2.29600980E+00  2.40534360E+00  2.40534360E+00  2.44178820E+00 -5.83113600E-01
 -2.15023140E+00  2.40534360E+00 -2.15023140E+00 -2.29600980E+00  2.40534360E+00
 -2.29600980E+00  2.40534360E+00  2.40534360E+00  2.40534360E+00 -5.28446700E-01
 -1.94978610E+00 -5.28446700E-01 -1.94978610E+00 -5.83113600E-01  2.44178820E+00
 -1.94978610E+00 -1.94978610E+00 -5.28446700E-01  2.46001050E+00 -2.15023140E+00
 -5.83113600E-01  2.44178820E+00  2.46001050E+00 -5.28446700E-01 -1.94978610E+00
 -2.29600980E+00  2.40534360E+00 -2.15023140E+00 -1.94978610E+00 -5.83113600E-01
  2.44178820E+00 -2.29600980E+00  2.40534360E+00  2.40534360E+00  2.44178820E+00
 -5.83113600E-01 -2.15023140E+00  2.40534360E+00 -2.15023140E+00 -2.29600980E+00
  2.40534360E+00 -2.29600980E+00  2.40534360E+00  2.40534360E+00  2.40534360E+00
 -5.28446700E-01 -1.94978610E+00 -5.28446700E-01 -1.94978610E+00 -5.83113600E-01
  2.44178820E+00 -1.94978610E+00 -1.94978610E+00 -5.28446700E-01  2.46001050E+00
 -2.15023140E+00 -5.83113600E-01  2.44178820E+00  2.46001050E+00 -5.28446700E-01
 -1.94978610E+00 -2.29600980E+00  2.40534360E+00 -2.15023140E+00 -1.94978610E+00
 -5.83113600E-01  2.44178820E+00 -2.29600980E+00  2.40534360E+00  2.40534360E+00
  2.44178820E+00 -5.83113600E-01 -2.15023140E+00  2.40534360E+00 -2.15023140E+00
 -2.29600980E+00  2.40534360E+00 -2.29600980E+00  2.40534360E+00  2.40534360E+00
  2.40534360E+00 -5.28446700E-01 -1.94978610E+00 -5.28446700E-01 -1.94978610E+00
 -5.83113600E-01  2.44178820E+00 -1.94978610E+00 -1.94978610E+00 -5.28446700E-01
  2.46001050E+00 -2.15023140E+00 -5.83113600E-01  2.44178820E+00  2.46001050E+00
 -5.28446700E-01 -1.94978610E+00 -2.29600980E+00  2.40534360E+00 -2.15023140E+00
 -1.94978610E+00 -5.83113600E-01  2.44178820E+00 -2.29600980E+00  2.40534360E+00
  2.40534360E+00  2.44178820E+00 -5.83113600E-01 -2.15023140E+00  2.40534360E+00
 -2.15023140E+00 -2.29600980E+00  2.40534360E+00 -2.29600980E+00  2.40534360E+00
  2.40534360E+00  2.40534360E+00 -5.28446700E-01 -1.94978610E+00 -5.28446700E-01
 -1.94978610E+00 -5.83113600E-01  2.44178820E+00 -1.94978610E+00 -1.94978610E+00
 -5.28446700E-01  2.46001050E+00 -2.15023140E+00 -5.83113600E-01  2.44178820E+00
  2.46001050E+00 -5.28446700E-01 -1.94978610E+00 -2.29600980E+00  2.40534360E+00
 -2.15023140E+00 -1.94978610E+00 -5.83113600E-01  2.44178820E+00 -2.29600980E+00
  2.40534360E+00  2.40534360E+00  2.44178820E+00 -5.83113600E-01 -2.15023140E+00
  2.40534360E+00 -2.15023140E+00 -2.29600980E+00  2.40534360E+00 -2.29600980E+00
  2.40534360E+00  2.40534360E+00  2.40534360E+00 -5.28446700E-01 -1.94978610E+00
 -5.28446700E-01 -1.94978610E+00 -5.83113600E-01  2.44178820E+00 -1.94978610E+00
 -1.94978610E+00 -5.28446700E-01  2.46001050E+00 -2.15023140E+00 -5.83113600E-01
  2.44178820E+00  2.46001050E+00 -5.28446700E-01 -1.94978610E+00 -2.29600980E+00
  2.40534360E+00 -2.15023140E+00 -1.94978610E+00 -5.83113600E-01  2.44178820E+00
 -2.29600980E+00  2.40534360E+00  2.40534360E+00  2.44178820E+00 -5.83113600E-01
 -2.15023140E+00  2.40534360E+00 -2.15023140E+00 -2.29600980E+00  2.40534360E+00
 -2.29600980E+00  2.40534360E+00  2.40534360E+00  2.40534360E+00 -5.28446700E-01
 -1.94978610E+00 -5.28446700E-01 -1.94978610E+00 -5.83113600E-01  2.44178820E+00
 -1.94978610E+00 -1.94978610E+00 -5.28446700E-01  2.46001050E+00 -2.15023140E+00
 -5.83113600E-01  2.44178820E+00  2.46001050E+00 -5.28446700E-01 -1.94978610E+00
 -2.29600980E+00  2.40534360E+00 -2.15023140E+00 -1.94978610E+00 -5.83113600E-01
  2.44178820E+00 -2.29600980E+00  2.40534360E+00  2.40534360E+00  2.44178820E+00
 -5.83113600E-01 -2.15023140E+00  2.40534360E+00 -2.15023140E+00 -2.29600980E+00
  2.40534360E+00 -2.29600980E+00  2.40534360E+00  2.40534360E+00  2.40534360E+00
 -5.28446700E-01 -1.94978610E+00 -5.28446700E-01 -1.94978610E+00 -5.83113600E-01
  2.44178820E+00 -1.94978610E+00 -1.94978610E+00 -5.28446700E-01  2.46001050E+00
 -2.15023140E+00 -5.83113600E-01  2.44178820E+00  2.46001050E+00 -5.28446700E-01
 -1.94978610E+00 -2.29600980E+00  2.40534360E+00 -2.15023140E+00 -1.94978610E+00
 -5.83113600E-01  2.44178820E+00 -2.29600980E+00  2.40534360E+00  2.40534360E+00
  2.44178820E+00 -5.83113600E-01 -2.15023140E+00  2.40534360E+00 -2.15023140E+00
 -2.29600980E+00  2.40534360E+00 -2.29600980E+00  2.40534360E+00  2.40534360E+00
  2.40534360E+00 -5.28446700E-01 -1.94978610E+00 -5.28446700E-01 -1.94978610E+00
 -5.83113600E-01  2.44178820E+00 -1.94978610E+00 -1.94978610E+00 -5.28446700E-01
  2.46001050E+00 -2.15023140E+00 -5.83113600E-01  2.44178820E+00  2.46001050E+00
 -5.28446700E-01 -1.94978610E+00 -2.29600980E+00  2.40534360E+00 -2.15023140E+00
 -1.94978610E+00 -5.83113600E-01  2.44178820E+00 -2.29600980E+00  2.40534360E+00
  2.40534360E+00  2.44178820E+00 -5.83113600E-01 -2.15023140E+00  2.40534360E+00
 -2.15023140E+00 -2.29600980E+00  2.40534360E+00 -2.29600980E+00  2.40534360E+00
  2.40534360E+00  2.40534360E+00 -5.28446700E-01 -1.94978610E+00 -5.28446700E-01
 -1.94978610E+00 -5.83113600E-01  2.44178820E+00 -1.94978610E+00 -1.94978610E+00
 -5.28446700E-01  2.46001050E+00 -2.15023140E+00 -5.83113600E-01  2.44178820E+00
  2.46001050E+00 -5.28446700E-01 -1.94978610E+00 -2.29600980E+00  2.40534360E+00
 -2.15023140E+00 -1.94978610E+00 -5.83113600E-01  2.44178820E+00 -2.29600980E+00
  2.40534360E+00  2.40534360E+00  2.44178820E+00 -5.83113600E-01 -2.15023140E+00
  2.40534360E+00 -2.15023140E+00 -2.29600980E+00  2.40534360E+00 -2.29600980E+00
  2.40534360E+00  2.40534360E+00  2.40534360E+00 -5.28446700E-01 -1.94978610E+00
 -5.28446700E-01 -1.94978610E+00 -5.83113600E-01  2.44178820E+00 -1.94978610E+00
 -1.94978610E+00 -5.28446700E-01  2.46001050E+00 -2.15023140E+00 -5.83113600E-01
  2.44178820E+00  2.46001050E+00 -5.28446700E-01 -1.94978610E+00 -2.29600980E+00
  2.40534360E+00 -2.15023140E+00 -1.94978610E+00 -5.83113600E-01  2.44178820E+00
 -2.29600980E+00  2.40534360E+00  2.40534360E+00  2.44178820E+00 -5.83113600E-01
 -2.15023140E+00  2.40534360E+00 -2.15023140E+00 -2.29600980E+00  2.40534360E+00
 -2.29600980E+00  2.40534360E+00  2.40534360E+00  2.40534360E+00 -5.28446700E-01
 -1.94978610E+00 -5.28446700E-01 -1.94978610E+00 -5.83113600E-01  2.44178820E+00
 -1.94978610E+00 -1.94978610E+00 -5.28446700E-01  2.46001050E+00 -2.15023140E+00
 -5.83113600E-01  2.44178820E+00  2.46001050E+00 -5.28446700E-01 -1.94978610E+00
 -2.29600980E+00  2.40534360E+00 -2.15023140E+00 -1.94978610E+00 -5.83113600E-01
  2.44178820E+00 -2.29600980E+00  2.40534360E+00  2.40534360E+00  2.44178820E+00
 -5.83113600E-01 -2.15023140E+00  2.40534360E+00 -2.15023140E+00 -2.29600980E+00
  2.40534360E+00 -2.29600980E+00  2.40534360E+00  2.40534360E+00  2.40534360E+00
 -5.28446700E-01 -1.94978610E+00 -5.28446700E-01 -1.94978610E+00 -5.83113600E-01
  2.44178820E+00 -1.94978610E+00 -1.94978610E+00 -5.28446700E-01  2.46001050E+00
 -2.15023140E+00 -5.83113600E-01  2.44178820E+00  2.46001050E+00 -5.28446700E-01
 -1.94978610E+00 -2.29600980E+00  2.40534360E+00 -2.15023140E+00 -1.94978610E+00
 -5.83113600E-01  2.44178820E+00 -2.29600980E+00  2.40534360E+00  2.40534360E+00
  2.44178820E+00 -5.83113600E-01 -2.15023140E+00  2.40534360E+00 -2.15023140E+00
 -2.29600980E+00  2.40534360E+00 -2.29600980E+00  2.40534360E+00  2.40534360E+00
  2.40534360E+00 -5.28446700E-01 -1.94978610E+00 -5.28446700E-01 -1.94978610E+00
 -5.83113600E-01  2.44178820E+00 -1.94978610E+00 -1.94978610E+00 -5.28446700E-01
  2.46001050E+00 -2.15023140E+00 -5.83113600E-01  2.44178820E+00  2.46001050E+00
 -5.28446700E-01 -1.94978610E+00 -2.29600980E+00  2.40534360E+00 -2.15023140E+00
 -1.94978610E+00 -5.83113600E-01  2.44178820E+00 -2.29600980E+00  2.40534360E+00
  2.40534360E+00  2.44178820E+00 -5.83113600E-01 -2.15023140E+00  2.40534360E+00
 -2.15023140E+00 -2.29600980E+00  2.40534360E+00 -2.29600980E+00  2.40534360E+00
  2.40534360E+00  2.40534360E+00 -5.28446700E-01 -1.94978610E+00 -5.28446700E-01
 -1.94978610E+00 -5.83113600E-01  2.44178820E+00 -1.94978610E+00 -1.94978610E+00
 -5.28446700E-01  2.46001050E+00 -2.15023140E+00 -5.83113600E-01  2.44178820E+00
  2.46001050E+00 -5.28446700E-01 -1.94978610E+00 -2.29600980E+00  2.40534360E+00
 -2.15023140E+00 -1.94978610E+00 -5.83113600E-01  2.44178820E+00 -2.29600980E+00
  2.40534360E+00  2.40534360E+00  2.44178820E+00 -5.83113600E-01 -2.15023140E+00
  2.40534360E+00 -2.15023140E+00 -2.29600980E+00  2.40534360E+00 -2.29600980E+00
  2.40534360E+00  2.40534360E+00  2.40534360E+00 -5.28446700E-01 -1.94978610E+00
 -5.28446700E-01 -1.94978610E+00 -5.83113600E-01  2.44178820E+00 -1.94978610E+00
 -1.94978610E+00 -5.28446700E-01  2.46001050E+00 -2.15023140E+00 -5.83113600E-01
  2.44178820E+00  2.46001050E+00 -5.28446700E-01 -1.94978610E+00 -2.29600980E+00
  2.40534360E+00 -2.15023140E+00 -1.94978610E+00 -5.83113600E-01  2.44178820E+00
 -2.29600980E+00  2.40534360E+00  2.40534360E+00  2.44178820E+00 -5.83113600E-01
 -2.15023140E+00  2.40534360E+00 -2.15023140E+00 -2.29600980E+00  2.40534360E+00
 -2.29600980E+00  2.40534360E+00  2.40534360E+00  2.40534360E+00 -5.28446700E-01
 -1.94978610E+00 -5.28446700E-01 -1.94978610E+00 -5.83113600E-01  2.44178820E+00
 -1.94978610E+00 -1.94978610E+00 -5.28446700E-01  2.46001050E+00 -2.15023140E+00
 -5.83113600E-01  2.44178820E+00  2.46001050E+00 -5.28446700E-01 -1.94978610E+00
 -2.29600980E+00  2.40534360E+00 -2.15023140E+00 -1.94978610E+00 -5.83113600E-01
  2.44178820E+00 -2.29600980E+00  2.40534360E+00  2.40534360E+00  2.44178820E+00
 -5.83113600E-01 -2.15023140E+00  2.40534360E+00 -2.15023140E+00 -2.29600980E+00
  2.40534360E+00 -2.29600980E+00  2.40534360E+00  2.40534360E+00  2.40534360E+00
 -5.28446700E-01 -1.94978610E+00 -5.28446700E-01 -1.94978610E+00 -5.83113600E-01
  2.44178820E+00 -1.94978610E+00 -1.94978610E+00 -5.28446700E-01  2.46001050E+00
 -2.15023140E+00 -5.83113600E-01  2.44178820E+00  2.46001050E+00 -5.28446700E-01
 -1.94978610E+00 -2.29600980E+00  2.40534360E+00 -2.15023140E+00 -1.94978610E+00
 -5.83113600E-01  2.44178820E+00 -2.29600980E+00  2.40534360E+00  2.40534360E+00
  2.44178820E+00 -5.83113600E-01 -2.15023140E+00  2.40534360E+00 -2.15023140E+00
 -2.29600980E+00  2.40534360E+00 -2.29600980E+00  2.40534360E+00  2.40534360E+00
  2.40534360E+00 -5.28446700E-01 -1.94978610E+00 -5.28446700E-01 -1.94978610E+00
 -5.83113600E-01  2.44178820E+00 -1.94978610E+00 -1.94978610E+00 -5.28446700E-01
  2.46001050E+00 -2.15023140E+00 -5.83113600E-01  2.44178820E+00  2.46001050E+00
 -5.28446700E-01 -1.94978610E+00 -2.29600980E+00  2.40534360E+00 -2.15023140E+00
 -1.94978610E+00 -5.83113600E-01  2.44178820E+00 -2.29600980E+00  2.40534360E+00
  2.40534360E+00  2.44178820E+00 -5.83113600E-01 -2.15023140E+00  2.40534360E+00
 -2.15023140E+00 -2.29600980E+00  2.40534360E+00 -2.29600980E+00  2.40534360E+00
  2.40534360E+00  2.40534360E+00 -5.28446700E-01 -1.94978610E+00 -5.28446700E-01
 -1.94978610E+00 -5.83113600E-01  2.44178820E+00 -1.94978610E+00 -1.94978610E+00
 -5.28446700E-01  2.46001050E+00 -2.15023140E+00 -5.83113600E-01  2.44178820E+00
  2.46001050E+00 -5.28446700E-01 -1.94978610E+00 -2.29600980E+00  2.40534360E+00
 -2.15023140E+00 -1.94978610E+00 -5.83113600E-01  2.44178820E+00 -2.29600980E+00
  2.40534360E+00  2.40534360E+00  2.44178820E+00 -5.83113600E-01 -2.15023140E+00
  2.40534360E+00 -2.15023140E+00 -2.29600980E+00  2.40534360E+00 -2.29600980E+00
  2.40534360E+00  2.40534360E+00  2.40534360E+00 -5.28446700E-01 -1.94978610E+00
 -5.28446700E-01 -1.94978610E+00 -5.83113600E-01  2.44178820E+00 -1.94978610E+00
 -1.94978610E+00 -5.28446700E-01  2.46001050E+00 -2.15023140E+00 -5.83113600E-01
  2.44178820E+00  2.46001050E+00 -5.28446700E-01 -1.94978610E+00 -2.29600980E+00
  2.40534360E+00 -2.15023140E+00 -1.94978610E+00 -5.83113600E-01  2.44178820E+00
 -2.29600980E+00  2.40534360E+00  2.40534360E+00  2.44178820E+00 -5.83113600E-01
 -2.15023140E+00  2.40534360E+00 -2.15023140E+00 -2.29600980E+00  2.40534360E+00
 -2.29600980E+00  2.40534360E+00  2.40534360E+00  2.40534360E+00 -5.28446700E-01
 -1.94978610E+00 -5.28446700E-01 -1.94978610E+00 -5.83113600E-01  2.44178820E+00
 -1.94978610E+00 -1.94978610E+00 -5.28446700E-01  2.46001050E+00 -2.15023140E+00
 -5.83113600E-01  2.44178820E+00  2.46001050E+00 -5.28446700E-01 -1.94978610E+00
 -2.29600980E+00  2.40534360E+00 -2.15023140E+00 -1.94978610E+00 -5.83113600E-01
  2.44178820E+00 -2.29600980E+00  2.40534360E+00  2.40534360E+00  2.44178820E+00
 -5.83113600E-01 -2.15023140E+00  2.40534360E+00 -2.15023140E+00 -2.29600980E+00
  2.40534360E+00 -2.29600980E+00  2.40534360E+00  2.40534360E+00  2.40534360E+00
 -5.28446700E-01 -1.94978610E+00 -5.28446700E-01 -1.94978610E+00 -5.83113600E-01
  2.44178820E+00 -1.94978610E+00 -1.94978610E+00 -5.28446700E-01  2.46001050E+00
 -2.15023140E+00 -5.83113600E-01  2.44178820E+00  2.46001050E+00 -5.28446700E-01
 -1.94978610E+00 -2.29600980E+00  2.40534360E+00 -2.15023140E+00 -1.94978610E+00
 -5.83113600E-01  2.44178820E+00 -2.29600980E+00  2.40534360E+00  2.40534360E+00
  2.44178820E+00 -5.83113600E-01 -2.15023140E+00  2.40534360E+00 -2.15023140E+00
 -2.29600980E+00  2.40534360E+00 -2.29600980E+00  2.40534360E+00  2.40534360E+00
  2.40534360E+00 -5.28446700E-01 -1.94978610E+00 -5.28446700E-01 -1.94978610E+00
 -5.83113600E-01  2.44178820E+00 -1.94978610E+00 -1.94978610E+00 -5.28446700E-01
  2.46001050E+00 -2.15023140E+00 -5.83113600E-01  2.44178820E+00  2.46001050E+00
 -5.28446700E-01 -1.94978610E+00 -2.29600980E+00  2.40534360E+00 -2.15023140E+00
 -1.94978610E+00 -5.83113600E-01  2.44178820E+00 -2.29600980E+00  2.40534360E+00
  2.40534360E+00  2.44178820E+00 -5.83113600E-01 -2.15023140E+00  2.40534360E+00
 -2.15023140E+00 -2.29600980E+00  2.40534360E+00 -2.29600980E+00  2.40534360E+00
  2.40534360E+00  2.40534360E+00 -5.28446700E-01 -1.94978610E+00 -5.28446700E-01
 -1.94978610E+00 -5.83113600E-01  2.44178820E+00 -1.94978610E+00 -1.94978610E+00
 -5.28446700E-01  2.46001050E+00 -2.15023140E+00 -5.83113600E-01  2.44178820E+00
  2.46001050E+00 -5.28446700E-01 -1.94978610E+00 -2.29600980E+00  2.40534360E+00
 -2.15023140E+00 -1.94978610E+00 -5.83113600E-01  2.44178820E+00 -2.29600980E+00
  2.40534360E+00  2.40534360E+00  2.44178820E+00 -5.83113600E-01 -2.15023140E+00
  2.40534360E+00 -2.15023140E+00 -2.29600980E+00  2.40534360E+00 -2.29600980E+00
  2.40534360E+00  2.40534360E+00  2.40534360E+00 -5.28446700E-01 -1.94978610E+00
 -5.28446700E-01 -1.94978610E+00 -5.83113600E-01  2.44178820E+00 -1.94978610E+00
 -1.94978610E+00 -5.28446700E-01  2.46001050E+00 -2.15023140E+00 -5.83113600E-01
  2.44178820E+00  2.46001050E+00 -5.28446700E-01 -1.94978610E+00 -2.29600980E+00
  2.40534360E+00 -2.15023140E+00 -1.94978610E+00 -5.83113600E-01  2.44178820E+00
 -2.29600980E+00  2.40534360E+00  2.40534360E+00  2.44178820E+00 -5.83113600E-01
 -2.15023140E+00  2.40534360E+00 -2.15023140E+00 -2.29600980E+00  2.40534360E+00
 -2.29600980E+00  2.40534360E+00  2.40534360E+00  2.40534360E+00 -5.28446700E-01
 -1.94978610E+00 -5.28446700E-01 -1.94978610E+00 -5.83113600E-01  2.44178820E+00
 -1.94978610E+00 -1.94978610E+00 -5.28446700E-01  2.46001050E+00 -2.15023140E+00
 -5.83113600E-01  2.44178820E+00  2.46001050E+00 -5.28446700E-01 -1.94978610E+00
 -2.29600980E+00  2.40534360E+00 -2.15023140E+00 -1.94978610E+00 -5.83113600E-01
  2.44178820E+00 -2.29600980E+00  2.40534360E+00  2.40534360E+00  2.44178820E+00
 -5.83113600E-01 -2.15023140E+00  2.40534360E+00 -2.15023140E+00 -2.29600980E+00
  2.40534360E+00 -2.29600980E+00  2.40534360E+00  2.40534360E+00  2.40534360E+00
 -5.28446700E-01 -1.94978610E+00 -5.28446700E-01 -1.94978610E+00 -5.83113600E-01
  2.44178820E+00 -1.94978610E+00 -1.94978610E+00 -5.28446700E-01  2.46001050E+00
 -2.15023140E+00 -5.83113600E-01  2.44178820E+00  2.46001050E+00 -5.28446700E-01
 -1.94978610E+00 -2.29600980E+00  2.40534360E+00 -2.15023140E+00 -1.94978610E+00
 -5.83113600E-01  2.44178820E+00 -2.29600980E+00  2.40534360E+00  2.40534360E+00
  2.44178820E+00 -5.83113600E-01 -2.15023140E+00  2.40534360E+00 -2.15023140E+00
 -2.29600980E+00  2.40534360E+00 -2.29600980E+00  2.40534360E+00  2.40534360E+00
  2.40534360E+00 -5.28446700E-01 -1.94978610E+00 -5.28446700E-01 -1.94978610E+00
 -5.83113600E-01  2.44178820E+00 -1.94978610E+00 -1.94978610E+00 -5.28446700E-01
  2.46001050E+00 -2.15023140E+00 -5.83113600E-01  2.44178820E+00  2.46001050E+00
 -5.28446700E-01 -1.94978610E+00 -2.29600980E+00  2.40534360E+00 -2.15023140E+00
 -1.94978610E+00 -5.83113600E-01  2.44178820E+00 -2.29600980E+00  2.40534360E+00
  2.40534360E+00  2.44178820E+00 -5.83113600E-01 -2.15023140E+00  2.40534360E+00
 -2.15023140E+00 -2.29600980E+00  2.40534360E+00 -2.29600980E+00  2.40534360E+00
  2.40534360E+00  2.40534360E+00 -5.28446700E-01 -1.94978610E+00 -5.28446700E-01
 -1.94978610E+00 -5.83113600E-01  2.44178820E+00 -1.94978610E+00 -1.94978610E+00
 -5.28446700E-01  2.46001050E+00 -2.15023140E+00 -5.83113600E-01  2.44178820E+00
  2.46001050E+00 -5.28446700E-01 -1.94978610E+00 -2.29600980E+00  2.40534360E+00
 -2.15023140E+00 -1.94978610E+00 -5.83113600E-01  2.44178820E+00 -2.29600980E+00
  2.40534360E+00  2.40534360E+00  2.44178820E+00 -5.83113600E-01 -2.15023140E+00
  2.40534360E+00 -2.15023140E+00 -2.29600980E+00  2.40534360E+00 -2.29600980E+00
  2.40534360E+00  2.40534360E+00  2.40534360E+00 -5.28446700E-01 -1.94978610E+00
 -5.28446700E-01 -1.94978610E+00 -5.83113600E-01  2.44178820E+00 -1.94978610E+00
 -1.94978610E+00 -5.28446700E-01  2.46001050E+00 -2.15023140E+00 -5.83113600E-01
  2.44178820E+00  2.46001050E+00 -5.28446700E-01 -1.94978610E+00 -2.29600980E+00
  2.40534360E+00 -2.15023140E+00 -1.94978610E+00 -5.83113600E-01  2.44178820E+00
 -2.29600980E+00  2.40534360E+00  2.40534360E+00  2.44178820E+00 -5.83113600E-01
 -2.15023140E+00  2.40534360E+00 -2.15023140E+00 -2.29600980E+00  2.40534360E+00
 -2.29600980E+00  2.40534360E+00  2.40534360E+00  2.40534360E+00 -5.28446700E-01
 -1.94978610E+00 -5.28446700E-01 -1.94978610E+00 -5.83113600E-01  2.44178820E+00
 -1.94978610E+00 -1.94978610E+00 -5.28446700E-01  2.46001050E+00 -2.15023140E+00
 -5.83113600E-01  2.44178820E+00  2.46001050E+00 -5.28446700E-01 -1.94978610E+00
 -2.29600980E+00  2.40534360E+00 -2.15023140E+00 -1.94978610E+00 -5.83113600E-01
  2.44178820E+00 -2.29600980E+00  2.40534360E+00  2.40534360E+00  2.44178820E+00
 -5.83113600E-01 -2.15023140E+00  2.40534360E+00 -2.15023140E+00 -2.29600980E+00
  2.40534360E+00 -2.29600980E+00  2.40534360E+00  2.40534360E+00  2.40534360E+00
 -5.28446700E-01 -1.94978610E+00 -5.28446700E-01 -1.94978610E+00 -5.83113600E-01
  2.44178820E+00 -1.94978610E+00 -1.94978610E+00 -5.28446700E-01  2.46001050E+00
 -2.15023140E+00 -5.83113600E-01  2.44178820E+00  2.46001050E+00 -5.28446700E-01
 -1.94978610E+00 -2.29600980E+00  2.40534360E+00 -2.15023140E+00 -1.94978610E+00
 -5.83113600E-01  2.44178820E+00 -2.29600980E+00  2.40534360E+00  2.40534360E+00
  2.44178820E+00 -5.83113600E-01 -2.15023140E+00  2.40534360E+00 -2.15023140E+00
 -2.29600980E+00  2.40534360E+00 -2.29600980E+00  2.40534360E+00  2.40534360E+00
  2.40534360E+00 -5.28446700E-01 -1.94978610E+00 -5.28446700E-01 -1.94978610E+00
 -5.83113600E-01  2.44178820E+00 -1.94978610E+00 -1.94978610E+00 -5.28446700E-01
  2.46001050E+00 -2.15023140E+00 -5.83113600E-01  2.44178820E+00  2.46001050E+00
 -5.28446700E-01 -1.94978610E+00 -2.29600980E+00  2.40534360E+00 -2.15023140E+00
 -1.94978610E+00 -5.83113600E-01  2.44178820E+00 -2.29600980E+00  2.40534360E+00
  2.40534360E+00  2.44178820E+00 -5.83113600E-01 -2.15023140E+00  2.40534360E+00
 -2.15023140E+00 -2.29600980E+00  2.40534360E+00 -2.29600980E+00  2.40534360E+00
  2.40534360E+00  2.40534360E+00 -5.28446700E-01 -1.94978610E+00 -5.28446700E-01
 -1.94978610E+00 -5.83113600E-01  2.44178820E+00 -1.94978610E+00 -1.94978610E+00
 -5.28446700E-01  2.46001050E+00 -2.15023140E+00 -5.83113600E-01  2.44178820E+00
  2.46001050E+00 -5.28446700E-01 -1.94978610E+00 -2.29600980E+00  2.40534360E+00
 -2.15023140E+00 -1.94978610E+00 -5.83113600E-01  2.44178820E+00 -2.29600980E+00
  2.40534360E+00  2.40534360E+00  2.44178820E+00 -5.83113600E-01 -2.15023140E+00
  2.40534360E+00 -2.15023140E+00 -2.29600980E+00  2.40534360E+00 -2.29600980E+00
  2.40534360E+00  2.40534360E+00  2.40534360E+00 -5.28446700E-01 -1.94978610E+00
 -5.28446700E-01 -1.94978610E+00 -5.83113600E-01  2.44178820E+00 -1.94978610E+00
 -1.94978610E+00 -5.28446700E-01  2.46001050E+00 -2.15023140E+00 -5.83113600E-01
  2.44178820E+00  2.46001050E+00 -5.28446700E-01 -1.94978610E+00 -2.29600980E+00
  2.40534360E+00 -2.15023140E+00 -1.94978610E+00 -5.83113600E-01  2.44178820E+00
 -2.29600980E+00  2.40534360E+00  2.40534360E+00  2.44178820E+00 -5.83113600E-01
 -2.15023140E+00  2.40534360E+00 -2.15023140E+00 -2.29600980E+00  2.40534360E+00
 -2.29600980E+00  2.40534360E+00  2.40534360E+00  2.40534360E+00 -5.28446700E-01
 -1.94978610E+00 -5.28446700E-01 -1.94978610E+00 -5.83113600E-01  2.44178820E+00
 -1.94978610E+00 -1.94978610E+00 -5.28446700E-01  2.46001050E+00 -2.15023140E+00
 -5.83113600E-01  2.44178820E+00  2.46001050E+00 -5.28446700E-01 -1.94978610E+00
 -2.29600980E+00  2.40534360E+00 -2.15023140E+00 -1.94978610E+00 -5.83113600E-01
  2.44178820E+00 -2.29600980E+00  2.40534360E+00  2.40534360E+00  2.44178820E+00
 -5.83113600E-01 -2.15023140E+00  2.40534360E+00 -2.15023140E+00 -2.29600980E+00
  2.40534360E+00 -2.29600980E+00  2.40534360E+00  2.40534360E+00  2.40534360E+00
 -5.28446700E-01 -1.94978610E+00 -5.28446700E-01 -1.94978610E+00 -5.83113600E-01
  2.44178820E+00 -1.94978610E+00 -1.94978610E+00 -5.28446700E-01  2.46001050E+00
 -2.15023140E+00 -5.83113600E-01  2.44178820E+00  2.46001050E+00 -5.28446700E-01
 -1.94978610E+00 -2.29600980E+00  2.40534360E+00 -2.15023140E+00 -1.94978610E+00
 -5.83113600E-01  2.44178820E+00 -2.29600980E+00  2.40534360E+00  2.40534360E+00
  2.44178820E+00 -5.83113600E-01 -2.15023140E+00  2.40534360E+00 -2.15023140E+00
 -2.29600980E+00  2.40534360E+00 -2.29600980E+00  2.40534360E+00  2.40534360E+00
  2.40534360E+00 -5.28446700E-01 -1.94978610E+00 -5.28446700E-01 -1.94978610E+00
 -5.83113600E-01  2.44178820E+00 -1.94978610E+00 -1.94978610E+00 -5.28446700E-01
  2.46001050E+00 -2.15023140E+00 -5.83113600E-01  2.44178820E+00  2.46001050E+00
 -5.28446700E-01 -1.94978610E+00 -2.29600980E+00  2.40534360E+00 -2.15023140E+00
 -1.94978610E+00 -5.83113600E-01  2.44178820E+00 -2.29600980E+00  2.40534360E+00
  2.40534360E+00  2.44178820E+00 -5.83113600E-01 -2.15023140E+00  2.40534360E+00
 -2.15023140E+00 -2.29600980E+00  2.40534360E+00 -2.29600980E+00  2.40534360E+00
  2.40534360E+00  2.40534360E+00 -5.28446700E-01 -1.94978610E+00 -5.28446700E-01
 -1.94978610E+00 -5.83113600E-01  2.44178820E+00 -1.94978610E+00 -1.94978610E+00
 -5.28446700E-01  2.46001050E+00 -2.15023140E+00 -5.83113600E-01  2.44178820E+00
  2.46001050E+00 -5.28446700E-01 -1.94978610E+00 -2.29600980E+00  2.40534360E+00
 -2.15023140E+00 -1.94978610E+00 -5.83113600E-01  2.44178820E+00 -2.29600980E+00
  2.40534360E+00  2.40534360E+00  2.44178820E+00 -5.83113600E-01 -2.15023140E+00
  2.40534360E+00 -2.15023140E+00 -2.29600980E+00  2.40534360E+00 -2.29600980E+00
  2.40534360E+00  2.40534360E+00  2.40534360E+00 -5.28446700E-01 -1.94978610E+00
 -5.28446700E-01 -1.94978610E+00 -5.83113600E-01  2.44178820E+00 -1.94978610E+00
 -1.94978610E+00 -5.28446700E-01  2.46001050E+00 -2.15023140E+00 -5.83113600E-01
  2.44178820E+00  2.46001050E+00 -5.28446700E-01 -1.94978610E+00 -2.29600980E+00
  2.40534360E+00 -2.15023140E+00 -1.94978610E+00 -5.83113600E-01  2.44178820E+00
 -2.29600980E+00  2.40534360E+00  2.40534360E+00  2.44178820E+00 -5.83113600E-01
 -2.15023140E+00  2.40534360E+00 -2.15023140E+00 -2.29600980E+00  2.40534360E+00
 -2.29600980E+00  2.40534360E+00  2.40534360E+00  2.40534360E+00 -5.28446700E-01
 -1.94978610E+00 -5.28446700E-01 -1.94978610E+00 -5.83113600E-01  2.44178820E+00
 -1.94978610E+00 -1.94978610E+00 -5.28446700E-01  2.46001050E+00 -2.15023140E+00
 -5.83113600E-01  2.44178820E+00  2.46001050E+00 -5.28446700E-01 -1.94978610E+00
 -2.29600980E+00  2.40534360E+00 -2.15023140E+00 -1.94978610E+00 -5.83113600E-01
  2.44178820E+00 -2.29600980E+00  2.40534360E+00  2.40534360E+00  2.44178820E+00
 -5.83113600E-01 -2.15023140E+00  2.40534360E+00 -2.15023140E+00 -2.29600980E+00
  2.40534360E+00 -2.29600980E+00  2.40534360E+00  2.40534360E+00  2.40534360E+00
 -5.28446700E-01 -1.94978610E+00 -5.28446700E-01 -1.94978610E+00 -5.83113600E-01
  2.44178820E+00 -1.94978610E+00 -1.94978610E+00 -5.28446700E-01  2.46001050E+00
 -2.15023140E+00 -5.83113600E-01  2.44178820E+00  2.46001050E+00 -5.28446700E-01
 -1.94978610E+00 -2.29600980E+00  2.40534360E+00 -2.15023140E+00 -1.94978610E+00
 -5.83113600E-01  2.44178820E+00 -2.29600980E+00  2.40534360E+00  2.40534360E+00
  2.44178820E+00 -5.83113600E-01 -2.15023140E+00  2.40534360E+00 -2.15023140E+00
 -2.29600980E+00  2.40534360E+00 -2.29600980E+00  2.40534360E+00  2.40534360E+00
  2.40534360E+00 -5.28446700E-01 -1.94978610E+00 -5.28446700E-01 -1.94978610E+00
 -5.83113600E-01  2.44178820E+00 -1.94978610E+00 -1.94978610E+00 -5.28446700E-01
  2.46001050E+00 -2.15023140E+00 -5.83113600E-01  2.44178820E+00  2.46001050E+00
 -5.28446700E-01 -1.94978610E+00 -2.29600980E+00  2.40534360E+00 -2.15023140E+00
 -1.94978610E+00 -5.83113600E-01  2.44178820E+00 -2.29600980E+00  2.40534360E+00
  2.40534360E+00  2.44178820E+00 -5.83113600E-01 -2.15023140E+00  2.40534360E+00
 -2.15023140E+00 -2.29600980E+00  2.40534360E+00 -2.29600980E+00  2.40534360E+00
  2.40534360E+00  2.40534360E+00 -5.28446700E-01 -1.94978610E+00 -5.28446700E-01
 -1.94978610E+00 -5.83113600E-01  2.44178820E+00 -1.94978610E+00 -1.94978610E+00
 -5.28446700E-01  2.46001050E+00 -2.15023140E+00 -5.83113600E-01  2.44178820E+00
  2.46001050E+00 -5.28446700E-01 -1.94978610E+00 -2.29600980E+00  2.40534360E+00
 -2.15023140E+00 -1.94978610E+00 -5.83113600E-01  2.44178820E+00 -2.29600980E+00
  2.40534360E+00  2.40534360E+00  2.44178820E+00 -5.83113600E-01 -2.15023140E+00
  2.40534360E+00 -2.15023140E+00 -2.29600980E+00  2.40534360E+00 -2.29600980E+00
  2.40534360E+00  2.40534360E+00  2.40534360E+00 -5.28446700E-01 -1.94978610E+00
 -5.28446700E-01 -1.94978610E+00 -5.83113600E-01  2.44178820E+00 -1.94978610E+00
 -1.94978610E+00 -5.28446700E-01  2.46001050E+00 -2.15023140E+00 -5.83113600E-01
  2.44178820E+00  2.46001050E+00 -5.28446700E-01 -1.94978610E+00 -2.29600980E+00
  2.40534360E+00 -2.15023140E+00 -1.94978610E+00 -5.83113600E-01  2.44178820E+00
 -2.29600980E+00  2.40534360E+00  2.40534360E+00  2.44178820E+00 -5.83113600E-01
 -2.15023140E+00  2.40534360E+00 -2.15023140E+00 -2.29600980E+00  2.40534360E+00
 -2.29600980E+00  2.40534360E+00  2.40534360E+00  2.40534360E+00 -5.28446700E-01
 -1.94978610E+00 -5.28446700E-01 -1.94978610E+00 -5.83113600E-01  2.44178820E+00
 -1.94978610E+00 -1.94978610E+00 -5.28446700E-01  2.46001050E+00 -2.15023140E+00
 -5.83113600E-01  2.44178820E+00  2.46001050E+00 -5.28446700E-01 -1.94978610E+00
 -2.29600980E+00  2.40534360E+00 -2.15023140E+00 -1.94978610E+00 -5.83113600E-01
  2.44178820E+00 -2.29600980E+00  2.40534360E+00  2.40534360E+00  2.44178820E+00
 -5.83113600E-01 -2.15023140E+00  2.40534360E+00 -2.15023140E+00 -2.29600980E+00
  2.40534360E+00 -2.29600980E+00  2.40534360E+00  2.40534360E+00  2.40534360E+00
 -5.28446700E-01 -1.94978610E+00 -5.28446700E-01 -1.94978610E+00 -5.83113600E-01
  2.44178820E+00 -1.94978610E+00 -1.94978610E+00 -5.28446700E-01  2.46001050E+00
 -2.15023140E+00 -5.83113600E-01  2.44178820E+00  2.46001050E+00 -5.28446700E-01
 -1.94978610E+00 -2.29600980E+00  2.40534360E+00 -2.15023140E+00 -1.94978610E+00
 -5.83113600E-01  2.44178820E+00 -2.29600980E+00  2.40534360E+00  2.40534360E+00
  2.44178820E+00 -5.83113600E-01 -2.15023140E+00  2.40534360E+00 -2.15023140E+00
 -2.29600980E+00  2.40534360E+00 -2.29600980E+00  2.40534360E+00  2.40534360E+00
  2.40534360E+00 -5.28446700E-01 -1.94978610E+00 -5.28446700E-01 -1.94978610E+00
 -5.83113600E-01  2.44178820E+00 -1.94978610E+00 -1.94978610E+00 -5.28446700E-01
  2.46001050E+00 -2.15023140E+00 -5.83113600E-01  2.44178820E+00  2.46001050E+00
 -5.28446700E-01 -1.94978610E+00 -2.29600980E+00  2.40534360E+00 -2.15023140E+00
 -1.94978610E+00 -5.83113600E-01  2.44178820E+00 -2.29600980E+00  2.40534360E+00
  2.40534360E+00  2.44178820E+00 -5.83113600E-01 -2.15023140E+00  2.40534360E+00
 -2.15023140E+00 -2.29600980E+00  2.40534360E+00 -2.29600980E+00  2.40534360E+00
  2.40534360E+00  2.40534360E+00 -5.28446700E-01 -1.94978610E+00 -5.28446700E-01
 -1.94978610E+00 -5.83113600E-01  2.44178820E+00 -1.94978610E+00 -1.94978610E+00
 -5.28446700E-01  2.46001050E+00 -2.15023140E+00 -5.83113600E-01  2.44178820E+00
  2.46001050E+00 -5.28446700E-01 -1.94978610E+00 -2.29600980E+00  2.40534360E+00
 -2.15023140E+00 -1.94978610E+00 -5.83113600E-01  2.44178820E+00 -2.29600980E+00
  2.40534360E+00  2.40534360E+00  2.44178820E+00 -5.83113600E-01 -2.15023140E+00
  2.40534360E+00 -2.15023140E+00 -2.29600980E+00  2.40534360E+00 -2.29600980E+00
  2.40534360E+00  2.40534360E+00  2.40534360E+00 -5.28446700E-01 -1.94978610E+00
 -5.28446700E-01 -1.94978610E+00 -5.83113600E-01  2.44178820E+00 -1.94978610E+00
 -1.94978610E+00 -5.28446700E-01  2.46001050E+00 -2.15023140E+00 -5.83113600E-01
  2.44178820E+00  2.46001050E+00 -5.28446700E-01 -1.94978610E+00 -2.29600980E+00
  2.40534360E+00 -2.15023140E+00 -1.94978610E+00 -5.83113600E-01  2.44178820E+00
 -2.29600980E+00  2.40534360E+00  2.40534360E+00  2.44178820E+00 -5.83113600E-01
 -2.15023140E+00  2.40534360E+00 -2.15023140E+00 -2.29600980E+00  2.40534360E+00
 -2.29600980E+00  2.40534360E+00  2.40534360E+00  2.40534360E+00 -5.28446700E-01
 -1.94978610E+00 -5.28446700E-01 -1.94978610E+00 -5.83113600E-01  2.44178820E+00
 -1.94978610E+00 -1.94978610E+00 -5.28446700E-01  2.46001050E+00 -2.15023140E+00
 -5.83113600E-01  2.44178820E+00  2.46001050E+00 -5.28446700E-01 -1.94978610E+00
 -2.29600980E+00  2.40534360E+00 -2.15023140E+00 -1.94978610E+00 -5.83113600E-01
  2.44178820E+00 -2.29600980E+00  2.40534360E+00  2.40534360E+00  2.44178820E+00
 -5.83113600E-01 -2.15023140E+00  2.40534360E+00 -2.15023140E+00 -2.29600980E+00
  2.40534360E+00 -2.29600980E+00  2.40534360E+00  2.40534360E+00  2.40534360E+00
 -5.28446700E-01 -1.94978610E+00 -5.28446700E-01 -1.94978610E+00 -5.83113600E-01
  2.44178820E+00 -1.94978610E+00 -1.94978610E+00 -5.28446700E-01  2.46001050E+00
 -2.15023140E+00 -5.83113600E-01  2.44178820E+00  2.46001050E+00 -5.28446700E-01
 -1.94978610E+00 -2.29600980E+00  2.40534360E+00 -2.15023140E+00 -1.94978610E+00
 -5.83113600E-01  2.44178820E+00 -2.29600980E+00  2.40534360E+00  2.40534360E+00
  2.44178820E+00 -5.83113600E-01 -2.15023140E+00  2.40534360E+00 -2.15023140E+00
 -2.29600980E+00  2.40534360E+00 -2.29600980E+00  2.40534360E+00  2.40534360E+00
  2.40534360E+00 -5.28446700E-01 -1.94978610E+00 -5.28446700E-01 -1.94978610E+00
 -5.83113600E-01  2.44178820E+00 -1.94978610E+00 -1.94978610E+00 -5.28446700E-01
  2.46001050E+00 -2.15023140E+00 -5.83113600E-01  2.44178820E+00  2.46001050E+00
 -5.28446700E-01 -1.94978610E+00 -2.29600980E+00  2.40534360E+00 -2.15023140E+00
 -1.94978610E+00 -5.83113600E-01  2.44178820E+00 -2.29600980E+00  2.40534360E+00
  2.40534360E+00  2.44178820E+00 -5.83113600E-01 -2.15023140E+00  2.40534360E+00
 -2.15023140E+00 -2.29600980E+00  2.40534360E+00 -2.29600980E+00  2.40534360E+00
  2.40534360E+00  2.40534360E+00 -5.28446700E-01 -1.94978610E+00 -5.28446700E-01
 -1.94978610E+00 -5.83113600E-01  2.44178820E+00 -1.94978610E+00 -1.94978610E+00
 -5.28446700E-01  2.46001050E+00 -2.15023140E+00 -5.83113600E-01  2.44178820E+00
  2.46001050E+00 -5.28446700E-01 -1.94978610E+00 -2.29600980E+00  2.40534360E+00
 -2.15023140E+00 -1.94978610E+00 -5.83113600E-01  2.44178820E+00 -2.29600980E+00
  2.40534360E+00  2.40534360E+00  2.44178820E+00 -5.83113600E-01 -2.15023140E+00
  2.40534360E+00 -2.15023140E+00 -2.29600980E+00  2.40534360E+00 -2.29600980E+00
  2.40534360E+00  2.40534360E+00  2.40534360E+00 -5.28446700E-01 -1.94978610E+00
 -5.28446700E-01 -1.94978610E+00 -5.83113600E-01  2.44178820E+00 -1.94978610E+00
 -1.94978610E+00 -5.28446700E-01  2.46001050E+00 -2.15023140E+00 -5.83113600E-01
  2.44178820E+00  2.46001050E+00 -5.28446700E-01 -1.94978610E+00 -2.29600980E+00
  2.40534360E+00 -2.15023140E+00 -1.94978610E+00 -5.83113600E-01  2.44178820E+00
 -2.29600980E+00  2.40534360E+00  2.40534360E+00  2.44178820E+00 -5.83113600E-01
 -2.15023140E+00  2.40534360E+00 -2.15023140E+00 -2.29600980E+00  2.40534360E+00
 -2.29600980E+00  2.40534360E+00  2.40534360E+00  2.40534360E+00 -5.28446700E-01
 -1.94978610E+00 -5.28446700E-01 -1.94978610E+00 -5.83113600E-01  2.44178820E+00
 -1.94978610E+00 -1.94978610E+00 -5.28446700E-01  2.46001050E+00 -2.15023140E+00
 -5.83113600E-01  2.44178820E+00  2.46001050E+00 -5.28446700E-01 -1.94978610E+00
 -2.29600980E+00  2.40534360E+00 -2.15023140E+00 -1.94978610E+00 -5.83113600E-01
  2.44178820E+00 -2.29600980E+00  2.40534360E+00  2.40534360E+00  2.44178820E+00
 -5.83113600E-01 -2.15023140E+00  2.40534360E+00 -2.15023140E+00 -2.29600980E+00
  2.40534360E+00 -2.29600980E+00  2.40534360E+00  2.40534360E+00  2.40534360E+00
 -5.28446700E-01 -1.94978610E+00 -5.28446700E-01 -1.94978610E+00 -5.83113600E-01
  2.44178820E+00 -1.94978610E+00 -1.94978610E+00 -5.28446700E-01  2.46001050E+00
 -2.15023140E+00 -5.83113600E-01  2.44178820E+00  2.46001050E+00 -5.28446700E-01
 -1.94978610E+00 -2.29600980E+00  2.40534360E+00 -2.15023140E+00 -1.94978610E+00
 -5.83113600E-01  2.44178820E+00 -2.29600980E+00  2.40534360E+00  2.40534360E+00
  2.44178820E+00 -5.83113600E-01 -2.15023140E+00  2.40534360E+00 -2.15023140E+00
 -2.29600980E+00  2.40534360E+00 -2.29600980E+00  2.40534360E+00  2.40534360E+00
  2.40534360E+00 -5.28446700E-01 -1.94978610E+00 -5.28446700E-01 -1.94978610E+00
 -5.83113600E-01  2.44178820E+00 -1.94978610E+00 -1.94978610E+00 -5.28446700E-01
  2.46001050E+00 -2.15023140E+00 -5.83113600E-01  2.44178820E+00  2.46001050E+00
 -5.28446700E-01 -1.94978610E+00 -2.29600980E+00  2.40534360E+00 -2.15023140E+00
 -1.94978610E+00 -5.83113600E-01  2.44178820E+00 -2.29600980E+00  2.40534360E+00
  2.40534360E+00  2.44178820E+00 -5.83113600E-01 -2.15023140E+00  2.40534360E+00
 -2.15023140E+00 -2.29600980E+00  2.40534360E+00 -2.29600980E+00  2.40534360E+00
  2.40534360E+00  2.40534360E+00 -5.28446700E-01 -1.94978610E+00 -5.28446700E-01
 -1.94978610E+00 -5.83113600E-01  2.44178820E+00 -1.94978610E+00 -1.94978610E+00
 -5.28446700E-01  2.46001050E+00 -2.15023140E+00 -5.83113600E-01  2.44178820E+00
  2.46001050E+00 -5.28446700E-01 -1.94978610E+00 -2.29600980E+00  2.40534360E+00
 -2.15023140E+00 -1.94978610E+00 -5.83113600E-01  2.44178820E+00 -2.29600980E+00
  2.40534360E+00  2.40534360E+00  2.44178820E+00 -5.83113600E-01 -2.15023140E+00
  2.40534360E+00 -2.15023140E+00 -2.29600980E+00  2.40534360E+00 -2.29600980E+00
  2.40534360E+00  2.40534360E+00  2.40534360E+00 -5.28446700E-01 -1.94978610E+00
 -5.28446700E-01 -1.94978610E+00 -5.83113600E-01  2.44178820E+00 -1.94978610E+00
 -1.94978610E+00 -5.28446700E-01  2.46001050E+00 -2.15023140E+00 -5.83113600E-01
  2.44178820E+00  2.46001050E+00 -5.28446700E-01 -1.94978610E+00 -2.29600980E+00
  2.40534360E+00 -2.15023140E+00 -1.94978610E+00 -5.83113600E-01  2.44178820E+00
 -2.29600980E+00  2.40534360E+00  2.40534360E+00  2.44178820E+00 -5.83113600E-01
 -2.15023140E+00  2.40534360E+00 -2.15023140E+00 -2.29600980E+00  2.40534360E+00
 -2.29600980E+00  2.40534360E+00  2.40534360E+00  2.40534360E+00 -5.28446700E-01
 -1.94978610E+00 -5.28446700E-01 -1.94978610E+00 -5.83113600E-01  2.44178820E+00
 -1.94978610E+00 -1.94978610E+00 -5.28446700E-01  2.46001050E+00 -2.15023140E+00
 -5.83113600E-01  2.44178820E+00  2.46001050E+00 -5.28446700E-01 -1.94978610E+00
 -2.29600980E+00  2.40534360E+00 -2.15023140E+00 -1.94978610E+00 -5.83113600E-01
  2.44178820E+00 -2.29600980E+00  2.40534360E+00  2.40534360E+00  2.44178820E+00
 -5.83113600E-01 -2.15023140E+00  2.40534360E+00 -2.15023140E+00 -2.29600980E+00
  2.40534360E+00 -2.29600980E+00  2.40534360E+00  2.40534360E+00  2.40534360E+00
 -5.28446700E-01 -1.94978610E+00 -5.28446700E-01 -1.94978610E+00 -5.83113600E-01
  2.44178820E+00 -1.94978610E+00 -1.94978610E+00 -5.28446700E-01  2.46001050E+00
 -2.15023140E+00 -5.83113600E-01  2.44178820E+00  2.46001050E+00 -5.28446700E-01
 -1.94978610E+00 -2.29600980E+00  2.40534360E+00 -2.15023140E+00 -1.94978610E+00
 -5.83113600E-01  2.44178820E+00 -2.29600980E+00  2.40534360E+00  2.40534360E+00
  2.44178820E+00 -5.83113600E-01 -2.15023140E+00  2.40534360E+00 -2.15023140E+00
 -2.29600980E+00  2.40534360E+00 -2.29600980E+00  2.40534360E+00  2.40534360E+00
  2.40534360E+00 -5.28446700E-01 -1.94978610E+00 -5.28446700E-01 -1.94978610E+00
 -5.83113600E-01  2.44178820E+00 -1.94978610E+00 -1.94978610E+00 -5.28446700E-01
  2.46001050E+00 -2.15023140E+00 -5.83113600E-01  2.44178820E+00  2.46001050E+00
 -5.28446700E-01 -1.94978610E+00 -2.29600980E+00  2.40534360E+00 -2.15023140E+00
 -1.94978610E+00 -5.83113600E-01  2.44178820E+00 -2.29600980E+00  2.40534360E+00
  2.40534360E+00  2.44178820E+00 -5.83113600E-01 -2.15023140E+00  2.40534360E+00
 -2.15023140E+00 -2.29600980E+00  2.40534360E+00 -2.29600980E+00  2.40534360E+00
  2.40534360E+00  2.40534360E+00 -5.28446700E-01 -1.94978610E+00 -5.28446700E-01
 -1.94978610E+00 -5.83113600E-01  2.44178820E+00 -1.94978610E+00 -1.94978610E+00
 -5.28446700E-01  2.46001050E+00 -2.15023140E+00 -5.83113600E-01  2.44178820E+00
  2.46001050E+00 -5.28446700E-01 -1.94978610E+00 -2.29600980E+00  2.40534360E+00
 -2.15023140E+00 -1.94978610E+00 -5.83113600E-01  2.44178820E+00 -2.29600980E+00
  2.40534360E+00  2.40534360E+00  2.44178820E+00 -5.83113600E-01 -2.15023140E+00
  2.40534360E+00 -2.15023140E+00 -2.29600980E+00  2.40534360E+00 -2.29600980E+00
  2.40534360E+00  2.40534360E+00  2.40534360E+00 -5.28446700E-01 -1.94978610E+00
 -5.28446700E-01 -1.94978610E+00 -5.83113600E-01  2.44178820E+00 -1.94978610E+00
 -1.94978610E+00 -5.28446700E-01  2.46001050E+00 -2.15023140E+00 -5.83113600E-01
  2.44178820E+00  2.46001050E+00 -5.28446700E-01 -1.94978610E+00 -2.29600980E+00
  2.40534360E+00 -2.15023140E+00 -1.94978610E+00 -5.83113600E-01  2.44178820E+00
 -2.29600980E+00  2.40534360E+00  2.40534360E+00  2.44178820E+00 -5.83113600E-01
 -2.15023140E+00  2.40534360E+00 -2.15023140E+00 -2.29600980E+00  2.40534360E+00
 -2.29600980E+00  2.40534360E+00  2.40534360E+00  2.40534360E+00 -5.28446700E-01
 -1.94978610E+00 -5.28446700E-01 -1.94978610E+00 -5.83113600E-01  2.44178820E+00
 -1.94978610E+00 -1.94978610E+00 -5.28446700E-01  2.46001050E+00 -2.15023140E+00
 -5.83113600E-01  2.44178820E+00  2.46001050E+00 -5.28446700E-01 -1.94978610E+00
 -2.29600980E+00  2.40534360E+00 -2.15023140E+00 -1.94978610E+00 -5.83113600E-01
  2.44178820E+00 -2.29600980E+00  2.40534360E+00  2.40534360E+00  2.44178820E+00
 -5.83113600E-01 -2.15023140E+00  2.40534360E+00 -2.15023140E+00 -2.29600980E+00
  2.40534360E+00 -2.29600980E+00  2.40534360E+00  2.40534360E+00  2.40534360E+00
 -5.28446700E-01 -1.94978610E+00 -5.28446700E-01 -1.94978610E+00 -5.83113600E-01
  2.44178820E+00 -1.94978610E+00 -1.94978610E+00 -5.28446700E-01  2.46001050E+00
 -2.15023140E+00 -5.83113600E-01  2.44178820E+00  2.46001050E+00 -5.28446700E-01
 -1.94978610E+00 -2.29600980E+00  2.40534360E+00 -2.15023140E+00 -1.94978610E+00
 -5.83113600E-01  2.44178820E+00 -2.29600980E+00  2.40534360E+00  2.40534360E+00
  2.44178820E+00 -5.83113600E-01 -2.15023140E+00  2.40534360E+00 -2.15023140E+00
 -2.29600980E+00  2.40534360E+00 -2.29600980E+00  2.40534360E+00  2.40534360E+00
  2.40534360E+00 -5.28446700E-01 -1.94978610E+00 -5.28446700E-01 -1.94978610E+00
 -5.83113600E-01  2.44178820E+00 -1.94978610E+00 -1.94978610E+00 -5.28446700E-01
  2.46001050E+00 -2.15023140E+00 -5.83113600E-01  2.44178820E+00  2.46001050E+00
 -5.28446700E-01 -1.94978610E+00 -2.29600980E+00  2.40534360E+00 -2.15023140E+00
 -1.94978610E+00 -5.83113600E-01  2.44178820E+00 -2.29600980E+00  2.40534360E+00
  2.40534360E+00  2.44178820E+00 -5.83113600E-01 -2.15023140E+00  2.40534360E+00
 -2.15023140E+00 -2.29600980E+00  2.40534360E+00 -2.29600980E+00  2.40534360E+00
  2.40534360E+00  2.40534360E+00 -5.28446700E-01 -1.94978610E+00 -5.28446700E-01
 -1.94978610E+00 -5.83113600E-01  2.44178820E+00 -1.94978610E+00 -1.94978610E+00
 -5.28446700E-01  2.46001050E+00 -2.15023140E+00 -5.83113600E-01  2.44178820E+00
  2.46001050E+00 -5.28446700E-01 -1.94978610E+00 -2.29600980E+00  2.40534360E+00
 -2.15023140E+00 -1.94978610E+00 -5.83113600E-01  2.44178820E+00 -2.29600980E+00
  2.40534360E+00  2.40534360E+00  2.44178820E+00 -5.83113600E-01 -2.15023140E+00
  2.40534360E+00 -2.15023140E+00 -2.29600980E+00  2.40534360E+00 -2.29600980E+00
  2.40534360E+00  2.40534360E+00  2.40534360E+00 -5.28446700E-01 -1.94978610E+00
 -5.28446700E-01 -1.94978610E+00 -5.83113600E-01  2.44178820E+00 -1.94978610E+00
 -1.94978610E+00 -5.28446700E-01  2.46001050E+00 -2.15023140E+00 -5.83113600E-01
  2.44178820E+00  2.46001050E+00 -5.28446700E-01 -1.94978610E+00 -2.29600980E+00
  2.40534360E+00 -2.15023140E+00 -1.94978610E+00 -5.83113600E-01  2.44178820E+00
 -2.29600980E+00  2.40534360E+00  2.40534360E+00  2.44178820E+00 -5.83113600E-01
 -2.15023140E+00  2.40534360E+00 -2.15023140E+00 -2.29600980E+00  2.40534360E+00
 -2.29600980E+00  2.40534360E+00  2.40534360E+00  2.40534360E+00 -5.28446700E-01
 -1.94978610E+00 -5.28446700E-01 -1.94978610E+00 -5.83113600E-01  2.44178820E+00
 -1.94978610E+00 -1.94978610E+00 -5.28446700E-01  2.46001050E+00 -2.15023140E+00
 -5.83113600E-01  2.44178820E+00  2.46001050E+00 -5.28446700E-01 -1.94978610E+00
 -2.29600980E+00  2.40534360E+00 -2.15023140E+00 -1.94978610E+00 -5.83113600E-01
  2.44178820E+00 -2.29600980E+00  2.40534360E+00  2.40534360E+00  2.44178820E+00
 -5.83113600E-01 -2.15023140E+00  2.40534360E+00 -2.15023140E+00 -2.29600980E+00
  2.40534360E+00 -2.29600980E+00  2.40534360E+00  2.40534360E+00  2.40534360E+00
 -5.28446700E-01 -1.94978610E+00 -5.28446700E-01 -1.94978610E+00 -5.83113600E-01
  2.44178820E+00 -1.94978610E+00 -1.94978610E+00 -5.28446700E-01  2.46001050E+00
 -2.15023140E+00 -5.83113600E-01  2.44178820E+00  2.46001050E+00 -5.28446700E-01
 -1.94978610E+00 -2.29600980E+00  2.40534360E+00 -2.15023140E+00 -1.94978610E+00
 -5.83113600E-01  2.44178820E+00 -2.29600980E+00  2.40534360E+00  2.40534360E+00
  2.44178820E+00 -5.83113600E-01 -2.15023140E+00  2.40534360E+00 -2.15023140E+00
 -2.29600980E+00  2.40534360E+00 -2.29600980E+00  2.40534360E+00  2.40534360E+00
  2.40534360E+00 -5.28446700E-01 -1.94978610E+00 -5.28446700E-01 -1.94978610E+00
 -5.83113600E-01  2.44178820E+00 -1.94978610E+00 -1.94978610E+00 -5.28446700E-01
  2.46001050E+00 -2.15023140E+00 -5.83113600E-01  2.44178820E+00  2.46001050E+00
 -5.28446700E-01 -1.94978610E+00 -2.29600980E+00  2.40534360E+00 -2.15023140E+00
 -1.94978610E+00 -5.83113600E-01  2.44178820E+00 -2.29600980E+00  2.40534360E+00
  2.40534360E+00  2.44178820E+00 -5.83113600E-01 -2.15023140E+00  2.40534360E+00
 -2.15023140E+00 -2.29600980E+00  2.40534360E+00 -2.29600980E+00  2.40534360E+00
  2.40534360E+00  2.40534360E+00 -5.28446700E-01 -1.94978610E+00 -5.28446700E-01
 -1.94978610E+00 -5.83113600E-01  2.44178820E+00 -1.94978610E+00 -1.94978610E+00
 -5.28446700E-01  2.46001050E+00 -2.15023140E+00 -5.83113600E-01  2.44178820E+00
  2.46001050E+00 -5.28446700E-01 -1.94978610E+00 -2.29600980E+00  2.40534360E+00
 -2.15023140E+00 -1.94978610E+00 -5.83113600E-01  2.44178820E+00 -2.29600980E+00
  2.40534360E+00  2.40534360E+00  2.44178820E+00 -5.83113600E-01 -2.15023140E+00
  2.40534360E+00 -2.15023140E+00 -2.29600980E+00  2.40534360E+00 -2.29600980E+00
  2.40534360E+00  2.40534360E+00  2.40534360E+00 -5.28446700E-01 -1.94978610E+00
 -5.28446700E-01 -1.94978610E+00 -5.83113600E-01  2.44178820E+00 -1.94978610E+00
 -1.94978610E+00 -5.28446700E-01  2.46001050E+00 -2.15023140E+00 -5.83113600E-01
  2.44178820E+00  2.46001050E+00 -5.28446700E-01 -1.94978610E+00 -2.29600980E+00
  2.40534360E+00 -2.15023140E+00 -1.94978610E+00 -5.83113600E-01  2.44178820E+00
 -2.29600980E+00  2.40534360E+00  2.40534360E+00  2.44178820E+00 -5.83113600E-01
 -2.15023140E+00  2.40534360E+00 -2.15023140E+00 -2.29600980E+00  2.40534360E+00
 -2.29600980E+00  2.40534360E+00  2.40534360E+00  2.40534360E+00 -5.28446700E-01
 -1.94978610E+00 -5.28446700E-01 -1.94978610E+00 -5.83113600E-01  2.44178820E+00
 -1.94978610E+00 -1.94978610E+00 -5.28446700E-01  2.46001050E+00 -2.15023140E+00
 -5.83113600E-01  2.44178820E+00  2.46001050E+00 -5.28446700E-01 -1.94978610E+00
 -2.29600980E+00  2.40534360E+00 -2.15023140E+00 -1.94978610E+00 -5.83113600E-01
  2.44178820E+00 -2.29600980E+00  2.40534360E+00  2.40534360E+00  2.44178820E+00
 -5.83113600E-01 -2.15023140E+00  2.40534360E+00 -2.15023140E+00 -2.29600980E+00
  2.40534360E+00 -2.29600980E+00  2.40534360E+00  2.40534360E+00  2.40534360E+00
 -5.28446700E-01 -1.94978610E+00 -5.28446700E-01 -1.94978610E+00 -5.83113600E-01
  2.44178820E+00 -1.94978610E+00 -1.94978610E+00 -5.28446700E-01  2.46001050E+00
 -2.15023140E+00 -5.83113600E-01  2.44178820E+00  2.46001050E+00 -5.28446700E-01
 -1.94978610E+00 -2.29600980E+00  2.40534360E+00 -2.15023140E+00 -1.94978610E+00
 -5.83113600E-01  2.44178820E+00 -2.29600980E+00  2.40534360E+00  2.40534360E+00
  2.44178820E+00 -5.83113600E-01 -2.15023140E+00  2.40534360E+00 -2.15023140E+00
 -2.29600980E+00  2.40534360E+00 -2.29600980E+00  2.40534360E+00  2.40534360E+00
  2.40534360E+00 -5.28446700E-01 -1.94978610E+00 -5.28446700E-01 -1.94978610E+00
 -5.83113600E-01  2.44178820E+00 -1.94978610E+00 -1.94978610E+00 -5.28446700E-01
  2.46001050E+00 -2.15023140E+00 -5.83113600E-01  2.44178820E+00  2.46001050E+00
 -5.28446700E-01 -1.94978610E+00 -2.29600980E+00  2.40534360E+00 -2.15023140E+00
 -1.94978610E+00 -5.83113600E-01  2.44178820E+00 -2.29600980E+00  2.40534360E+00
  2.40534360E+00  2.44178820E+00 -5.83113600E-01 -2.15023140E+00  2.40534360E+00
 -2.15023140E+00 -2.29600980E+00  2.40534360E+00 -2.29600980E+00  2.40534360E+00
  2.40534360E+00  2.40534360E+00 -5.28446700E-01 -1.94978610E+00 -5.28446700E-01
 -1.94978610E+00 -5.83113600E-01  2.44178820E+00 -1.94978610E+00 -1.94978610E+00
 -5.28446700E-01  2.46001050E+00 -2.15023140E+00 -5.83113600E-01  2.44178820E+00
  2.46001050E+00 -5.28446700E-01 -1.94978610E+00 -2.29600980E+00  2.40534360E+00
 -2.15023140E+00 -1.94978610E+00 -5.83113600E-01  2.44178820E+00 -2.29600980E+00
  2.40534360E+00  2.40534360E+00  2.44178820E+00 -5.83113600E-01 -2.15023140E+00
  2.40534360E+00 -2.15023140E+00 -2.29600980E+00  2.40534360E+00 -2.29600980E+00
  2.40534360E+00  2.40534360E+00  2.40534360E+00 -5.28446700E-01 -1.94978610E+00
 -5.28446700E-01 -1.94978610E+00 -5.83113600E-01  2.44178820E+00 -1.94978610E+00
 -1.94978610E+00 -5.28446700E-01  2.46001050E+00 -2.15023140E+00 -5.83113600E-01
  2.44178820E+00  2.46001050E+00 -5.28446700E-01 -1.94978610E+00 -2.29600980E+00
  2.40534360E+00 -2.15023140E+00 -1.94978610E+00 -5.83113600E-01  2.44178820E+00
 -2.29600980E+00  2.40534360E+00  2.40534360E+00  2.44178820E+00 -5.83113600E-01
 -2.15023140E+00  2.40534360E+00 -2.15023140E+00 -2.29600980E+00  2.40534360E+00
 -2.29600980E+00  2.40534360E+00  2.40534360E+00  2.40534360E+00 -5.28446700E-01
 -1.94978610E+00 -5.28446700E-01 -1.94978610E+00 -5.83113600E-01  2.44178820E+00
 -1.94978610E+00 -1.94978610E+00 -5.28446700E-01  2.46001050E+00 -2.15023140E+00
 -5.83113600E-01  2.44178820E+00  2.46001050E+00 -5.28446700E-01 -1.94978610E+00
 -2.29600980E+00  2.40534360E+00 -2.15023140E+00 -1.94978610E+00 -5.83113600E-01
  2.44178820E+00 -2.29600980E+00  2.40534360E+00  2.40534360E+00  2.44178820E+00
 -5.83113600E-01 -2.15023140E+00  2.40534360E+00 -2.15023140E+00 -2.29600980E+00
  2.40534360E+00 -2.29600980E+00  2.40534360E+00  2.40534360E+00  2.40534360E+00
 -5.28446700E-01 -1.94978610E+00 -5.28446700E-01 -1.94978610E+00 -5.83113600E-01
  2.44178820E+00 -1.94978610E+00 -1.94978610E+00 -5.28446700E-01  2.46001050E+00
 -2.15023140E+00 -5.83113600E-01  2.44178820E+00  2.46001050E+00 -5.28446700E-01
 -1.94978610E+00 -2.29600980E+00  2.40534360E+00 -2.15023140E+00 -1.94978610E+00
 -5.83113600E-01  2.44178820E+00 -2.29600980E+00  2.40534360E+00  2.40534360E+00
  2.44178820E+00 -5.83113600E-01 -2.15023140E+00  2.40534360E+00 -2.15023140E+00
 -2.29600980E+00  2.40534360E+00 -2.29600980E+00  2.40534360E+00  2.40534360E+00
  2.40534360E+00 -5.28446700E-01 -1.94978610E+00 -5.28446700E-01 -1.94978610E+00
 -5.83113600E-01  2.44178820E+00 -1.94978610E+00 -1.94978610E+00 -5.28446700E-01
  2.46001050E+00 -2.15023140E+00 -5.83113600E-01  2.44178820E+00  2.46001050E+00
 -5.28446700E-01 -1.94978610E+00 -2.29600980E+00  2.40534360E+00 -2.15023140E+00
 -1.94978610E+00 -5.83113600E-01  2.44178820E+00 -2.29600980E+00  2.40534360E+00
  2.40534360E+00  2.44178820E+00 -5.83113600E-01 -2.15023140E+00  2.40534360E+00
 -2.15023140E+00 -2.29600980E+00  2.40534360E+00 -2.29600980E+00  2.40534360E+00
  2.40534360E+00  2.40534360E+00 -5.28446700E-01 -1.94978610E+00 -5.28446700E-01
 -1.94978610E+00 -5.83113600E-01  2.44178820E+00 -1.94978610E+00 -1.94978610E+00
 -5.28446700E-01  2.46001050E+00 -2.15023140E+00 -5.83113600E-01  2.44178820E+00
  2.46001050E+00 -5.28446700E-01 -1.94978610E+00 -2.29600980E+00  2.40534360E+00
 -2.15023140E+00 -1.94978610E+00 -5.83113600E-01  2.44178820E+00 -2.29600980E+00
  2.40534360E+00  2.40534360E+00  2.44178820E+00 -5.83113600E-01 -2.15023140E+00
  2.40534360E+00 -2.15023140E+00 -2.29600980E+00  2.40534360E+00 -2.29600980E+00
  2.40534360E+00  2.40534360E+00  2.40534360E+00 -5.28446700E-01 -1.94978610E+00
 -5.28446700E-01 -1.94978610E+00 -5.83113600E-01  2.44178820E+00 -1.94978610E+00
 -1.94978610E+00 -5.28446700E-01  2.46001050E+00 -2.15023140E+00 -5.83113600E-01
  2.44178820E+00  2.46001050E+00 -5.28446700E-01 -1.94978610E+00 -2.29600980E+00
  2.40534360E+00 -2.15023140E+00 -1.94978610E+00 -5.83113600E-01  2.44178820E+00
 -2.29600980E+00  2.40534360E+00  2.40534360E+00  2.44178820E+00 -5.83113600E-01
 -2.15023140E+00  2.40534360E+00 -2.15023140E+00 -2.29600980E+00  2.40534360E+00
 -2.29600980E+00  2.40534360E+00  2.40534360E+00  2.40534360E+00 -5.28446700E-01
 -1.94978610E+00 -5.28446700E-01 -1.94978610E+00 -5.83113600E-01  2.44178820E+00
 -1.94978610E+00 -1.94978610E+00 -5.28446700E-01  2.46001050E+00 -2.15023140E+00
 -5.83113600E-01  2.44178820E+00  2.46001050E+00 -5.28446700E-01 -1.94978610E+00
 -2.29600980E+00  2.40534360E+00 -2.15023140E+00 -1.94978610E+00 -5.83113600E-01
  2.44178820E+00 -2.29600980E+00  2.40534360E+00  2.40534360E+00  2.44178820E+00
 -5.83113600E-01 -2.15023140E+00  2.40534360E+00 -2.15023140E+00 -2.29600980E+00
  2.40534360E+00 -2.29600980E+00  2.40534360E+00  2.40534360E+00  2.40534360E+00
 -5.28446700E-01 -1.94978610E+00 -5.28446700E-01 -1.94978610E+00 -5.83113600E-01
  2.44178820E+00 -1.94978610E+00 -1.94978610E+00 -5.28446700E-01  2.46001050E+00
 -2.15023140E+00 -5.83113600E-01  2.44178820E+00  2.46001050E+00 -5.28446700E-01
 -1.94978610E+00 -2.29600980E+00  2.40534360E+00 -2.15023140E+00 -1.94978610E+00
 -5.83113600E-01  2.44178820E+00 -2.29600980E+00  2.40534360E+00  2.40534360E+00
  2.44178820E+00 -5.83113600E-01 -2.15023140E+00  2.40534360E+00 -2.15023140E+00
 -2.29600980E+00  2.40534360E+00 -2.29600980E+00  2.40534360E+00  2.40534360E+00
  2.40534360E+00 -5.28446700E-01 -1.94978610E+00 -5.28446700E-01 -1.94978610E+00
 -5.83113600E-01  2.44178820E+00 -1.94978610E+00 -1.94978610E+00 -5.28446700E-01
  2.46001050E+00 -2.15023140E+00 -5.83113600E-01  2.44178820E+00  2.46001050E+00
 -5.28446700E-01 -1.94978610E+00 -2.29600980E+00  2.40534360E+00 -2.15023140E+00
 -1.94978610E+00 -5.83113600E-01  2.44178820E+00 -2.29600980E+00  2.40534360E+00
  2.40534360E+00  2.44178820E+00 -5.83113600E-01 -2.15023140E+00  2.40534360E+00
 -2.15023140E+00 -2.29600980E+00  2.40534360E+00 -2.29600980E+00  2.40534360E+00
  2.40534360E+00  2.40534360E+00 -5.28446700E-01 -1.94978610E+00 -5.28446700E-01
 -1.94978610E+00 -5.83113600E-01  2.44178820E+00 -1.94978610E+00 -1.94978610E+00
 -5.28446700E-01  2.46001050E+00 -2.15023140E+00 -5.83113600E-01  2.44178820E+00
  2.46001050E+00 -5.28446700E-01 -1.94978610E+00 -2.29600980E+00  2.40534360E+00
 -2.15023140E+00 -1.94978610E+00 -5.83113600E-01  2.44178820E+00 -2.29600980E+00
  2.40534360E+00  2.40534360E+00  2.44178820E+00 -5.83113600E-01 -2.15023140E+00
  2.40534360E+00 -2.15023140E+00 -2.29600980E+00  2.40534360E+00 -2.29600980E+00
  2.40534360E+00  2.40534360E+00  2.40534360E+00 -5.28446700E-01 -1.94978610E+00
 -5.28446700E-01 -1.94978610E+00 -5.83113600E-01  2.44178820E+00 -1.94978610E+00
 -1.94978610E+00 -5.28446700E-01  2.46001050E+00 -2.15023140E+00 -5.83113600E-01
  2.44178820E+00  2.46001050E+00 -5.28446700E-01 -1.94978610E+00 -2.29600980E+00
  2.40534360E+00 -2.15023140E+00 -1.94978610E+00 -5.83113600E-01  2.44178820E+00
 -2.29600980E+00  2.40534360E+00  2.40534360E+00  2.44178820E+00 -5.83113600E-01
 -2.15023140E+00  2.40534360E+00 -2.15023140E+00 -2.29600980E+00  2.40534360E+00
 -2.29600980E+00  2.40534360E+00  2.40534360E+00  2.40534360E+00 -5.28446700E-01
 -1.94978610E+00 -5.28446700E-01 -1.94978610E+00 -5.83113600E-01  2.44178820E+00
 -1.94978610E+00 -1.94978610E+00 -5.28446700E-01  2.46001050E+00 -2.15023140E+00
 -5.83113600E-01  2.44178820E+00  2.46001050E+00 -5.28446700E-01 -1.94978610E+00
 -2.29600980E+00  2.40534360E+00 -2.15023140E+00 -1.94978610E+00 -5.83113600E-01
  2.44178820E+00 -2.29600980E+00  2.40534360E+00  2.40534360E+00  2.44178820E+00
 -5.83113600E-01 -2.15023140E+00  2.40534360E+00 -2.15023140E+00 -2.29600980E+00
  2.40534360E+00 -2.29600980E+00  2.40534360E+00  2.40534360E+00  2.40534360E+00
 -5.28446700E-01 -1.94978610E+00 -5.28446700E-01 -1.94978610E+00 -5.83113600E-01
  2.44178820E+00 -1.94978610E+00 -1.94978610E+00 -5.28446700E-01  2.46001050E+00
 -2.15023140E+00 -5.83113600E-01  2.44178820E+00  2.46001050E+00 -5.28446700E-01
 -1.94978610E+00 -2.29600980E+00  2.40534360E+00 -2.15023140E+00 -1.94978610E+00
 -5.83113600E-01  2.44178820E+00 -2.29600980E+00  2.40534360E+00  2.40534360E+00
  2.44178820E+00 -5.83113600E-01 -2.15023140E+00  2.40534360E+00 -2.15023140E+00
 -2.29600980E+00  2.40534360E+00 -2.29600980E+00  2.40534360E+00  2.40534360E+00
  2.40534360E+00 -5.28446700E-01 -1.94978610E+00 -5.28446700E-01 -1.94978610E+00
 -5.83113600E-01  2.44178820E+00 -1.94978610E+00 -1.94978610E+00 -5.28446700E-01
  2.46001050E+00 -2.15023140E+00 -5.83113600E-01  2.44178820E+00  2.46001050E+00
 -5.28446700E-01 -1.94978610E+00 -2.29600980E+00  2.40534360E+00 -2.15023140E+00
 -1.94978610E+00 -5.83113600E-01  2.44178820E+00 -2.29600980E+00  2.40534360E+00
  2.40534360E+00  2.44178820E+00 -5.83113600E-01 -2.15023140E+00  2.40534360E+00
 -2.15023140E+00 -2.29600980E+00  2.40534360E+00 -2.29600980E+00  2.40534360E+00
  2.40534360E+00  2.40534360E+00 -5.28446700E-01 -1.94978610E+00 -5.28446700E-01
 -1.94978610E+00 -5.83113600E-01  2.44178820E+00 -1.94978610E+00 -1.94978610E+00
 -5.28446700E-01  2.46001050E+00 -2.15023140E+00 -5.83113600E-01  2.44178820E+00
  2.46001050E+00 -5.28446700E-01 -1.94978610E+00 -2.29600980E+00  2.40534360E+00
 -2.15023140E+00 -1.94978610E+00 -5.83113600E-01  2.44178820E+00 -2.29600980E+00
  2.40534360E+00  2.40534360E+00  2.44178820E+00 -5.83113600E-01 -2.15023140E+00
  2.40534360E+00 -2.15023140E+00 -2.29600980E+00  2.40534360E+00 -2.29600980E+00
  2.40534360E+00  2.40534360E+00  2.40534360E+00 -5.28446700E-01 -1.94978610E+00
 -5.28446700E-01 -1.94978610E+00 -5.83113600E-01  2.44178820E+00 -1.94978610E+00
 -1.94978610E+00 -5.28446700E-01  2.46001050E+00 -2.15023140E+00 -5.83113600E-01
  2.44178820E+00  2.46001050E+00 -5.28446700E-01 -1.94978610E+00 -2.29600980E+00
  2.40534360E+00 -2.15023140E+00 -1.94978610E+00 -5.83113600E-01  2.44178820E+00
 -2.29600980E+00  2.40534360E+00  2.40534360E+00  2.44178820E+00 -5.83113600E-01
 -2.15023140E+00  2.40534360E+00 -2.15023140E+00 -2.29600980E+00  2.40534360E+00
 -2.29600980E+00  2.40534360E+00  2.40534360E+00  2.40534360E+00 -5.28446700E-01
 -1.94978610E+00 -5.28446700E-01 -1.94978610E+00 -5.83113600E-01  2.44178820E+00
 -1.94978610E+00 -1.94978610E+00 -5.28446700E-01  2.46001050E+00 -2.15023140E+00
 -5.83113600E-01  2.44178820E+00  2.46001050E+00 -5.28446700E-01 -1.94978610E+00
 -2.29600980E+00  2.40534360E+00 -2.15023140E+00 -1.94978610E+00 -5.83113600E-01
  2.44178820E+00 -2.29600980E+00  2.40534360E+00  2.40534360E+00  2.44178820E+00
 -5.83113600E-01 -2.15023140E+00  2.40534360E+00 -2.15023140E+00 -2.29600980E+00
  2.40534360E+00 -2.29600980E+00  2.40534360E+00  2.40534360E+00  2.40534360E+00
 -5.28446700E-01 -1.94978610E+00 -5.28446700E-01 -1.94978610E+00 -5.83113600E-01
  2.44178820E+00 -1.94978610E+00 -1.94978610E+00 -5.28446700E-01  2.46001050E+00
 -2.15023140E+00 -5.83113600E-01  2.44178820E+00  2.46001050E+00 -5.28446700E-01
 -1.94978610E+00 -2.29600980E+00  2.40534360E+00 -2.15023140E+00 -1.94978610E+00
 -5.83113600E-01  2.44178820E+00 -2.29600980E+00  2.40534360E+00  2.40534360E+00
  2.44178820E+00 -5.83113600E-01 -2.15023140E+00  2.40534360E+00 -2.15023140E+00
 -2.29600980E+00  2.40534360E+00 -2.29600980E+00  2.40534360E+00  2.40534360E+00
  2.40534360E+00 -5.28446700E-01 -1.94978610E+00 -5.28446700E-01 -1.94978610E+00
 -5.83113600E-01  2.44178820E+00 -1.94978610E+00 -1.94978610E+00 -5.28446700E-01
  2.46001050E+00 -2.15023140E+00 -5.83113600E-01  2.44178820E+00  2.46001050E+00
 -5.28446700E-01 -1.94978610E+00 -2.29600980E+00  2.40534360E+00 -2.15023140E+00
 -1.94978610E+00 -5.83113600E-01  2.44178820E+00 -2.29600980E+00  2.40534360E+00
  2.40534360E+00  2.44178820E+00 -5.83113600E-01 -2.15023140E+00  2.40534360E+00
 -2.15023140E+00 -2.29600980E+00  2.40534360E+00 -2.29600980E+00  2.40534360E+00
  2.40534360E+00  2.40534360E+00 -5.28446700E-01 -1.94978610E+00 -5.28446700E-01
 -1.94978610E+00 -5.83113600E-01  2.44178820E+00 -1.94978610E+00 -1.94978610E+00
 -5.28446700E-01  2.46001050E+00 -2.15023140E+00 -5.83113600E-01  2.44178820E+00
  2.46001050E+00 -5.28446700E-01 -1.94978610E+00 -2.29600980E+00  2.40534360E+00
 -2.15023140E+00 -1.94978610E+00 -5.83113600E-01  2.44178820E+00 -2.29600980E+00
  2.40534360E+00  2.40534360E+00  2.44178820E+00 -5.83113600E-01 -2.15023140E+00
  2.40534360E+00 -2.15023140E+00 -2.29600980E+00  2.40534360E+00 -2.29600980E+00
  2.40534360E+00  2.40534360E+00  2.40534360E+00 -5.28446700E-01 -1.94978610E+00
 -5.28446700E-01 -1.94978610E+00 -5.83113600E-01  2.44178820E+00 -1.94978610E+00
 -1.94978610E+00 -5.28446700E-01  2.46001050E+00 -2.15023140E+00 -5.83113600E-01
  2.44178820E+00  2.46001050E+00 -5.28446700E-01 -1.94978610E+00 -2.29600980E+00
  2.40534360E+00 -2.15023140E+00 -1.94978610E+00 -5.83113600E-01  2.44178820E+00
 -2.29600980E+00  2.40534360E+00  2.40534360E+00  2.44178820E+00 -5.83113600E-01
 -2.15023140E+00  2.40534360E+00 -2.15023140E+00 -2.29600980E+00  2.40534360E+00
 -2.29600980E+00  2.40534360E+00  2.40534360E+00  2.40534360E+00 -5.28446700E-01
 -1.94978610E+00 -5.28446700E-01 -1.94978610E+00 -5.83113600E-01  2.44178820E+00
 -1.94978610E+00 -1.94978610E+00 -5.28446700E-01  2.46001050E+00 -2.15023140E+00
 -5.83113600E-01  2.44178820E+00  2.46001050E+00 -5.28446700E-01 -1.94978610E+00
 -2.29600980E+00  2.40534360E+00 -2.15023140E+00 -1.94978610E+00 -5.83113600E-01
  2.44178820E+00 -2.29600980E+00  2.40534360E+00  2.40534360E+00  2.44178820E+00
 -5.83113600E-01 -2.15023140E+00  2.40534360E+00 -2.15023140E+00 -2.29600980E+00
  2.40534360E+00 -2.29600980E+00  2.40534360E+00  2.40534360E+00  2.40534360E+00
 -5.28446700E-01 -1.94978610E+00 -5.28446700E-01 -1.94978610E+00 -5.83113600E-01
  2.44178820E+00 -1.94978610E+00 -1.94978610E+00 -5.28446700E-01  2.46001050E+00
 -2.15023140E+00 -5.83113600E-01  2.44178820E+00  2.46001050E+00 -5.28446700E-01
 -1.94978610E+00 -2.29600980E+00  2.40534360E+00 -2.15023140E+00 -1.94978610E+00
 -5.83113600E-01  2.44178820E+00 -2.29600980E+00  2.40534360E+00  2.40534360E+00
  2.44178820E+00 -5.83113600E-01 -2.15023140E+00  2.40534360E+00 -2.15023140E+00
 -2.29600980E+00  2.40534360E+00 -2.29600980E+00  2.40534360E+00  2.40534360E+00
  2.40534360E+00 -5.28446700E-01 -1.94978610E+00 -5.28446700E-01 -1.94978610E+00
 -5.83113600E-01  2.44178820E+00 -1.94978610E+00 -1.94978610E+00 -5.28446700E-01
  2.46001050E+00 -2.15023140E+00 -5.83113600E-01  2.44178820E+00  2.46001050E+00
 -5.28446700E-01 -1.94978610E+00 -2.29600980E+00  2.40534360E+00 -2.15023140E+00
 -1.94978610E+00 -5.83113600E-01  2.44178820E+00 -2.29600980E+00  2.40534360E+00
  2.40534360E+00  2.44178820E+00 -5.83113600E-01 -2.15023140E+00  2.40534360E+00
 -2.15023140E+00 -2.29600980E+00  2.40534360E+00 -2.29600980E+00  2.40534360E+00
  2.40534360E+00  2.40534360E+00 -5.28446700E-01 -1.94978610E+00 -5.28446700E-01
 -1.94978610E+00 -5.83113600E-01  2.44178820E+00 -1.94978610E+00 -1.94978610E+00
 -5.28446700E-01  2.46001050E+00 -2.15023140E+00 -5.83113600E-01  2.44178820E+00
  2.46001050E+00 -5.28446700E-01 -1.94978610E+00 -2.29600980E+00  2.40534360E+00
 -2.15023140E+00 -1.94978610E+00 -5.83113600E-01  2.44178820E+00 -2.29600980E+00
  2.40534360E+00  2.40534360E+00  2.44178820E+00 -5.83113600E-01 -2.15023140E+00
  2.40534360E+00 -2.15023140E+00 -2.29600980E+00  2.40534360E+00 -2.29600980E+00
  2.40534360E+00  2.40534360E+00  2.40534360E+00 -5.28446700E-01 -1.94978610E+00
 -5.28446700E-01 -1.94978610E+00 -5.83113600E-01  2.44178820E+00 -1.94978610E+00
 -1.94978610E+00 -5.28446700E-01  2.46001050E+00 -2.15023140E+00 -5.83113600E-01
  2.44178820E+00  2.46001050E+00 -5.28446700E-01 -1.94978610E+00 -2.29600980E+00
  2.40534360E+00 -2.15023140E+00 -1.94978610E+00 -5.83113600E-01  2.44178820E+00
 -2.29600980E+00  2.40534360E+00  2.40534360E+00  2.44178820E+00 -5.83113600E-01
 -2.15023140E+00  2.40534360E+00 -2.15023140E+00 -2.29600980E+00  2.40534360E+00
 -2.29600980E+00  2.40534360E+00  2.40534360E+00  2.40534360E+00 -5.28446700E-01
 -1.94978610E+00 -5.28446700E-01 -1.94978610E+00 -5.83113600E-01  2.44178820E+00
 -1.94978610E+00 -1.94978610E+00 -5.28446700E-01  2.46001050E+00 -2.15023140E+00
 -5.83113600E-01  2.44178820E+00  2.46001050E+00 -5.28446700E-01 -1.94978610E+00
 -2.29600980E+00  2.40534360E+00 -2.15023140E+00 -1.94978610E+00 -5.83113600E-01
  2.44178820E+00 -2.29600980E+00  2.40534360E+00  2.40534360E+00  2.44178820E+00
 -5.83113600E-01 -2.15023140E+00  2.40534360E+00 -2.15023140E+00 -2.29600980E+00
  2.40534360E+00 -2.29600980E+00  2.40534360E+00  2.40534360E+00  2.40534360E+00
 -5.28446700E-01 -1.94978610E+00 -5.28446700E-01 -1.94978610E+00 -5.83113600E-01
  2.44178820E+00 -1.94978610E+00 -1.94978610E+00 -5.28446700E-01  2.46001050E+00
 -2.15023140E+00 -5.83113600E-01  2.44178820E+00  2.46001050E+00 -5.28446700E-01
 -1.94978610E+00 -2.29600980E+00  2.40534360E+00 -2.15023140E+00 -1.94978610E+00
 -5.83113600E-01  2.44178820E+00 -2.29600980E+00  2.40534360E+00  2.40534360E+00
  2.44178820E+00 -5.83113600E-01 -2.15023140E+00  2.40534360E+00 -2.15023140E+00
 -2.29600980E+00  2.40534360E+00 -2.29600980E+00  2.40534360E+00  2.40534360E+00
  2.40534360E+00 -5.28446700E-01 -1.94978610E+00 -5.28446700E-01 -1.94978610E+00
 -5.83113600E-01  2.44178820E+00 -1.94978610E+00 -1.94978610E+00 -5.28446700E-01
  2.46001050E+00 -2.15023140E+00 -5.83113600E-01  2.44178820E+00  2.46001050E+00
 -5.28446700E-01 -1.94978610E+00 -2.29600980E+00  2.40534360E+00 -2.15023140E+00
 -1.94978610E+00 -5.83113600E-01  2.44178820E+00 -2.29600980E+00  2.40534360E+00
  2.40534360E+00  2.44178820E+00 -5.83113600E-01 -2.15023140E+00  2.40534360E+00
 -2.15023140E+00 -2.29600980E+00  2.40534360E+00 -2.29600980E+00  2.40534360E+00
  2.40534360E+00  2.40534360E+00 -5.28446700E-01 -1.94978610E+00 -5.28446700E-01
 -1.94978610E+00 -5.83113600E-01  2.44178820E+00 -1.94978610E+00 -1.94978610E+00
 -5.28446700E-01  2.46001050E+00 -2.15023140E+00 -5.83113600E-01  2.44178820E+00
  2.46001050E+00 -5.28446700E-01 -1.94978610E+00 -2.29600980E+00  2.40534360E+00
 -2.15023140E+00 -1.94978610E+00 -5.83113600E-01  2.44178820E+00 -2.29600980E+00
  2.40534360E+00  2.40534360E+00  2.44178820E+00 -5.83113600E-01 -2.15023140E+00
  2.40534360E+00 -2.15023140E+00 -2.29600980E+00  2.40534360E+00 -2.29600980E+00
  2.40534360E+00  2.40534360E+00  2.40534360E+00 -5.28446700E-01 -1.94978610E+00
 -5.28446700E-01 -1.94978610E+00 -5.83113600E-01  2.44178820E+00 -1.94978610E+00
 -1.94978610E+00 -5.28446700E-01  2.46001050E+00 -2.15023140E+00 -5.83113600E-01
  2.44178820E+00  2.46001050E+00 -5.28446700E-01 -1.94978610E+00 -2.29600980E+00
  2.40534360E+00 -2.15023140E+00 -1.94978610E+00 -5.83113600E-01  2.44178820E+00
 -2.29600980E+00  2.40534360E+00  2.40534360E+00  2.44178820E+00 -5.83113600E-01
 -2.15023140E+00  2.40534360E+00 -2.15023140E+00 -2.29600980E+00  2.40534360E+00
 -2.29600980E+00  2.40534360E+00  2.40534360E+00  2.40534360E+00 -5.28446700E-01
 -1.94978610E+00 -5.28446700E-01 -1.94978610E+00 -5.83113600E-01  2.44178820E+00
 -1.94978610E+00 -1.94978610E+00 -5.28446700E-01  2.46001050E+00 -2.15023140E+00
 -5.83113600E-01  2.44178820E+00  2.46001050E+00 -5.28446700E-01 -1.94978610E+00
 -2.29600980E+00  2.40534360E+00 -2.15023140E+00 -1.94978610E+00 -5.83113600E-01
  2.44178820E+00 -2.29600980E+00  2.40534360E+00  2.40534360E+00  2.44178820E+00
 -5.83113600E-01 -2.15023140E+00  2.40534360E+00 -2.15023140E+00 -2.29600980E+00
  2.40534360E+00 -2.29600980E+00  2.40534360E+00  2.40534360E+00  2.40534360E+00
 -5.28446700E-01 -1.94978610E+00 -5.28446700E-01 -1.94978610E+00 -5.83113600E-01
  2.44178820E+00 -1.94978610E+00 -1.94978610E+00 -5.28446700E-01  2.46001050E+00
 -2.15023140E+00 -5.83113600E-01  2.44178820E+00  2.46001050E+00 -5.28446700E-01
 -1.94978610E+00 -2.29600980E+00  2.40534360E+00 -2.15023140E+00 -1.94978610E+00
 -5.83113600E-01  2.44178820E+00 -2.29600980E+00  2.40534360E+00  2.40534360E+00
  2.44178820E+00 -5.83113600E-01 -2.15023140E+00  2.40534360E+00 -2.15023140E+00
 -2.29600980E+00  2.40534360E+00 -2.29600980E+00  2.40534360E+00  2.40534360E+00
  2.40534360E+00 -5.28446700E-01 -1.94978610E+00 -5.28446700E-01 -1.94978610E+00
 -5.83113600E-01  2.44178820E+00 -1.94978610E+00 -1.94978610E+00 -5.28446700E-01
  2.46001050E+00 -2.15023140E+00 -5.83113600E-01  2.44178820E+00  2.46001050E+00
 -5.28446700E-01 -1.94978610E+00 -2.29600980E+00  2.40534360E+00 -2.15023140E+00
 -1.94978610E+00 -5.83113600E-01  2.44178820E+00 -2.29600980E+00  2.40534360E+00
  2.40534360E+00  2.44178820E+00 -5.83113600E-01 -2.15023140E+00  2.40534360E+00
 -2.15023140E+00 -2.29600980E+00  2.40534360E+00 -2.29600980E+00  2.40534360E+00
  2.40534360E+00  2.40534360E+00 -5.28446700E-01 -1.94978610E+00 -5.28446700E-01
 -1.94978610E+00 -5.83113600E-01  2.44178820E+00 -1.94978610E+00 -1.94978610E+00
 -5.28446700E-01  2.46001050E+00 -2.15023140E+00 -5.83113600E-01  2.44178820E+00
  2.46001050E+00 -5.28446700E-01 -1.94978610E+00 -2.29600980E+00  2.40534360E+00
 -2.15023140E+00 -1.94978610E+00 -5.83113600E-01  2.44178820E+00 -2.29600980E+00
  2.40534360E+00  2.40534360E+00  2.44178820E+00 -5.83113600E-01 -2.15023140E+00
  2.40534360E+00 -2.15023140E+00 -2.29600980E+00  2.40534360E+00 -2.29600980E+00
  2.40534360E+00  2.40534360E+00  2.40534360E+00 -5.28446700E-01 -1.94978610E+00
 -5.28446700E-01 -1.94978610E+00 -5.83113600E-01  2.44178820E+00 -1.94978610E+00
 -1.94978610E+00 -5.28446700E-01  2.46001050E+00 -2.15023140E+00 -5.83113600E-01
  2.44178820E+00  2.46001050E+00 -5.28446700E-01 -1.94978610E+00 -2.29600980E+00
  2.40534360E+00 -2.15023140E+00 -1.94978610E+00 -5.83113600E-01  2.44178820E+00
 -2.29600980E+00  2.40534360E+00  2.40534360E+00  2.44178820E+00 -5.83113600E-01
 -2.15023140E+00  2.40534360E+00 -2.15023140E+00 -2.29600980E+00  2.40534360E+00
 -2.29600980E+00  2.40534360E+00  2.40534360E+00  2.40534360E+00 -5.28446700E-01
 -1.94978610E+00 -5.28446700E-01 -1.94978610E+00 -5.83113600E-01  2.44178820E+00
 -1.94978610E+00 -1.94978610E+00 -5.28446700E-01  2.46001050E+00 -2.15023140E+00
 -5.83113600E-01  2.44178820E+00  2.46001050E+00 -5.28446700E-01 -1.94978610E+00
 -2.29600980E+00  2.40534360E+00 -2.15023140E+00 -1.94978610E+00 -5.83113600E-01
  2.44178820E+00 -2.29600980E+00  2.40534360E+00  2.40534360E+00  2.44178820E+00
 -5.83113600E-01 -2.15023140E+00  2.40534360E+00 -2.15023140E+00 -2.29600980E+00
  2.40534360E+00 -2.29600980E+00  2.40534360E+00  2.40534360E+00  2.40534360E+00
 -5.28446700E-01 -1.94978610E+00 -5.28446700E-01 -1.94978610E+00 -5.83113600E-01
  2.44178820E+00 -1.94978610E+00 -1.94978610E+00 -5.28446700E-01  2.46001050E+00
 -2.15023140E+00 -5.83113600E-01  2.44178820E+00  2.46001050E+00 -5.28446700E-01
 -1.94978610E+00 -2.29600980E+00  2.40534360E+00 -2.15023140E+00 -1.94978610E+00
 -5.83113600E-01  2.44178820E+00 -2.29600980E+00  2.40534360E+00  2.40534360E+00
  2.44178820E+00 -5.83113600E-01 -2.15023140E+00  2.40534360E+00 -2.15023140E+00
 -2.29600980E+00  2.40534360E+00 -2.29600980E+00  2.40534360E+00  2.40534360E+00
  2.40534360E+00 -5.28446700E-01 -1.94978610E+00 -5.28446700E-01 -1.94978610E+00
 -5.83113600E-01  2.44178820E+00 -1.94978610E+00 -1.94978610E+00 -5.28446700E-01
  2.46001050E+00 -2.15023140E+00 -5.83113600E-01  2.44178820E+00  2.46001050E+00
 -5.28446700E-01 -1.94978610E+00 -2.29600980E+00  2.40534360E+00 -2.15023140E+00
 -1.94978610E+00 -5.83113600E-01  2.44178820E+00 -2.29600980E+00  2.40534360E+00
  2.40534360E+00  2.44178820E+00 -5.83113600E-01 -2.15023140E+00  2.40534360E+00
 -2.15023140E+00 -2.29600980E+00  2.40534360E+00 -2.29600980E+00  2.40534360E+00
  2.40534360E+00  2.40534360E+00 -5.28446700E-01 -1.94978610E+00 -5.28446700E-01
 -1.94978610E+00 -5.83113600E-01  2.44178820E+00 -1.94978610E+00 -1.94978610E+00
 -5.28446700E-01  2.46001050E+00 -2.15023140E+00 -5.83113600E-01  2.44178820E+00
  2.46001050E+00 -5.28446700E-01 -1.94978610E+00 -2.29600980E+00  2.40534360E+00
 -2.15023140E+00 -1.94978610E+00 -5.83113600E-01  2.44178820E+00 -2.29600980E+00
  2.40534360E+00  2.40534360E+00  2.44178820E+00 -5.83113600E-01 -2.15023140E+00
  2.40534360E+00 -2.15023140E+00 -2.29600980E+00  2.40534360E+00 -2.29600980E+00
  2.40534360E+00  2.40534360E+00  2.40534360E+00 -5.28446700E-01 -1.94978610E+00
 -5.28446700E-01 -1.94978610E+00 -5.83113600E-01  2.44178820E+00 -1.94978610E+00
 -1.94978610E+00 -5.28446700E-01  2.46001050E+00 -2.15023140E+00 -5.83113600E-01
  2.44178820E+00  2.46001050E+00 -5.28446700E-01 -1.94978610E+00 -2.29600980E+00
  2.40534360E+00 -2.15023140E+00 -1.94978610E+00 -5.83113600E-01  2.44178820E+00
 -2.29600980E+00  2.40534360E+00  2.40534360E+00  2.44178820E+00 -5.83113600E-01
 -2.15023140E+00  2.40534360E+00 -2.15023140E+00 -2.29600980E+00  2.40534360E+00
 -2.29600980E+00  2.40534360E+00  2.40534360E+00  2.40534360E+00 -5.28446700E-01
 -1.94978610E+00 -5.28446700E-01 -1.94978610E+00 -5.83113600E-01  2.44178820E+00
 -1.94978610E+00 -1.94978610E+00 -5.28446700E-01  2.46001050E+00 -2.15023140E+00
 -5.83113600E-01  2.44178820E+00  2.46001050E+00 -5.28446700E-01 -1.94978610E+00
 -2.29600980E+00  2.40534360E+00 -2.15023140E+00 -1.94978610E+00 -5.83113600E-01
  2.44178820E+00 -2.29600980E+00  2.40534360E+00  2.40534360E+00  2.44178820E+00
 -5.83113600E-01 -2.15023140E+00  2.40534360E+00 -2.15023140E+00 -2.29600980E+00
  2.40534360E+00 -2.29600980E+00  2.40534360E+00  2.40534360E+00  2.40534360E+00
 -5.28446700E-01 -1.94978610E+00 -5.28446700E-01 -1.94978610E+00 -5.83113600E-01
  2.44178820E+00 -1.94978610E+00 -1.94978610E+00 -5.28446700E-01  2.46001050E+00
 -2.15023140E+00 -5.83113600E-01  2.44178820E+00  2.46001050E+00 -5.28446700E-01
 -1.94978610E+00 -2.29600980E+00  2.40534360E+00 -2.15023140E+00 -1.94978610E+00
 -5.83113600E-01  2.44178820E+00 -2.29600980E+00  2.40534360E+00  2.40534360E+00
  2.44178820E+00 -5.83113600E-01 -2.15023140E+00  2.40534360E+00 -2.15023140E+00
 -2.29600980E+00  2.40534360E+00 -2.29600980E+00  2.40534360E+00  2.40534360E+00
  2.40534360E+00 -5.28446700E-01 -1.94978610E+00 -5.28446700E-01 -1.94978610E+00
 -5.83113600E-01  2.44178820E+00 -1.94978610E+00 -1.94978610E+00 -5.28446700E-01
  2.46001050E+00 -2.15023140E+00 -5.83113600E-01  2.44178820E+00  2.46001050E+00
 -5.28446700E-01 -1.94978610E+00 -2.29600980E+00  2.40534360E+00 -2.15023140E+00
 -1.94978610E+00 -5.83113600E-01  2.44178820E+00 -2.29600980E+00  2.40534360E+00
  2.40534360E+00  2.44178820E+00 -5.83113600E-01 -2.15023140E+00  2.40534360E+00
 -2.15023140E+00 -2.29600980E+00  2.40534360E+00 -2.29600980E+00  2.40534360E+00
  2.40534360E+00  2.40534360E+00 -5.28446700E-01 -1.94978610E+00 -5.28446700E-01
 -1.94978610E+00 -5.83113600E-01  2.44178820E+00 -1.94978610E+00 -1.94978610E+00
 -5.28446700E-01  2.46001050E+00 -2.15023140E+00 -5.83113600E-01  2.44178820E+00
  2.46001050E+00 -5.28446700E-01 -1.94978610E+00 -2.29600980E+00  2.40534360E+00
 -2.15023140E+00 -1.94978610E+00 -5.83113600E-01  2.44178820E+00 -2.29600980E+00
  2.40534360E+00  2.40534360E+00  2.44178820E+00 -5.83113600E-01 -2.15023140E+00
  2.40534360E+00 -2.15023140E+00 -2.29600980E+00  2.40534360E+00 -2.29600980E+00
  2.40534360E+00  2.40534360E+00  2.40534360E+00 -5.28446700E-01 -1.94978610E+00
 -5.28446700E-01 -1.94978610E+00 -5.83113600E-01  2.44178820E+00 -1.94978610E+00
 -1.94978610E+00 -5.28446700E-01  2.46001050E+00 -2.15023140E+00 -5.83113600E-01
  2.44178820E+00  2.46001050E+00 -5.28446700E-01 -1.94978610E+00 -2.29600980E+00
  2.40534360E+00 -2.15023140E+00 -1.94978610E+00 -5.83113600E-01  2.44178820E+00
 -2.29600980E+00  2.40534360E+00  2.40534360E+00  2.44178820E+00 -5.83113600E-01
 -2.15023140E+00  2.40534360E+00 -2.15023140E+00 -2.29600980E+00  2.40534360E+00
 -2.29600980E+00  2.40534360E+00  2.40534360E+00  2.40534360E+00 -5.28446700E-01
 -1.94978610E+00 -5.28446700E-01 -1.94978610E+00 -5.83113600E-01  2.44178820E+00
 -1.94978610E+00 -1.94978610E+00 -5.28446700E-01  2.46001050E+00 -2.15023140E+00
 -5.83113600E-01  2.44178820E+00  2.46001050E+00 -5.28446700E-01 -1.94978610E+00
 -2.29600980E+00  2.40534360E+00 -2.15023140E+00 -1.94978610E+00 -5.83113600E-01
  2.44178820E+00 -2.29600980E+00  2.40534360E+00  2.40534360E+00  2.44178820E+00
 -5.83113600E-01 -2.15023140E+00  2.40534360E+00 -2.15023140E+00 -2.29600980E+00
  2.40534360E+00 -2.29600980E+00  2.40534360E+00  2.40534360E+00  2.40534360E+00
 -5.28446700E-01 -1.94978610E+00 -5.28446700E-01 -1.94978610E+00 -5.83113600E-01
  2.44178820E+00 -1.94978610E+00 -1.94978610E+00 -5.28446700E-01  2.46001050E+00
 -2.15023140E+00 -5.83113600E-01  2.44178820E+00  2.46001050E+00 -5.28446700E-01
 -1.94978610E+00 -2.29600980E+00  2.40534360E+00 -2.15023140E+00 -1.94978610E+00
 -5.83113600E-01  2.44178820E+00 -2.29600980E+00  2.40534360E+00  2.40534360E+00
  2.44178820E+00 -5.83113600E-01 -2.15023140E+00  2.40534360E+00 -2.15023140E+00
 -2.29600980E+00  2.40534360E+00 -2.29600980E+00  2.40534360E+00  2.40534360E+00
  2.40534360E+00 -5.28446700E-01 -1.94978610E+00 -5.28446700E-01 -1.94978610E+00
 -5.83113600E-01  2.44178820E+00 -1.94978610E+00 -1.94978610E+00 -5.28446700E-01
  2.46001050E+00 -2.15023140E+00 -5.83113600E-01  2.44178820E+00  2.46001050E+00
 -5.28446700E-01 -1.94978610E+00 -2.29600980E+00  2.40534360E+00 -2.15023140E+00
 -1.94978610E+00 -5.83113600E-01  2.44178820E+00 -2.29600980E+00  2.40534360E+00
  2.40534360E+00  2.44178820E+00 -5.83113600E-01 -2.15023140E+00  2.40534360E+00
 -2.15023140E+00 -2.29600980E+00  2.40534360E+00 -2.29600980E+00  2.40534360E+00
  2.40534360E+00  2.40534360E+00 -5.28446700E-01 -1.94978610E+00 -5.28446700E-01
 -1.94978610E+00 -5.83113600E-01  2.44178820E+00 -1.94978610E+00 -1.94978610E+00
 -5.28446700E-01  2.46001050E+00 -2.15023140E+00 -5.83113600E-01  2.44178820E+00
  2.46001050E+00 -5.28446700E-01 -1.94978610E+00 -2.29600980E+00  2.40534360E+00
 -2.15023140E+00 -1.94978610E+00 -5.83113600E-01  2.44178820E+00 -2.29600980E+00
  2.40534360E+00  2.40534360E+00  2.44178820E+00 -5.83113600E-01 -2.15023140E+00
  2.40534360E+00 -2.15023140E+00 -2.29600980E+00  2.40534360E+00 -2.29600980E+00
  2.40534360E+00  2.40534360E+00  2.40534360E+00 -5.28446700E-01 -1.94978610E+00
 -5.28446700E-01 -1.94978610E+00 -5.83113600E-01  2.44178820E+00 -1.94978610E+00
 -1.94978610E+00 -5.28446700E-01  2.46001050E+00 -2.15023140E+00 -5.83113600E-01
  2.44178820E+00  2.46001050E+00 -5.28446700E-01 -1.94978610E+00 -2.29600980E+00
  2.40534360E+00 -2.15023140E+00 -1.94978610E+00 -5.83113600E-01  2.44178820E+00
 -2.29600980E+00  2.40534360E+00  2.40534360E+00  2.44178820E+00 -5.83113600E-01
 -2.15023140E+00  2.40534360E+00 -2.15023140E+00 -2.29600980E+00  2.40534360E+00
 -2.29600980E+00  2.40534360E+00  2.40534360E+00  2.40534360E+00 -5.28446700E-01
 -1.94978610E+00 -5.28446700E-01 -1.94978610E+00 -5.83113600E-01  2.44178820E+00
 -1.94978610E+00 -1.94978610E+00 -5.28446700E-01  2.46001050E+00 -2.15023140E+00
 -5.83113600E-01  2.44178820E+00  2.46001050E+00 -5.28446700E-01 -1.94978610E+00
 -2.29600980E+00  2.40534360E+00 -2.15023140E+00 -1.94978610E+00 -5.83113600E-01
  2.44178820E+00 -2.29600980E+00  2.40534360E+00  2.40534360E+00  2.44178820E+00
 -5.83113600E-01 -2.15023140E+00  2.40534360E+00 -2.15023140E+00 -2.29600980E+00
  2.40534360E+00 -2.29600980E+00  2.40534360E+00  2.40534360E+00  2.40534360E+00
 -5.28446700E-01 -1.94978610E+00 -5.28446700E-01 -1.94978610E+00 -5.83113600E-01
  2.44178820E+00 -1.94978610E+00 -1.94978610E+00 -5.28446700E-01  2.46001050E+00
 -2.15023140E+00 -5.83113600E-01  2.44178820E+00  2.46001050E+00 -5.28446700E-01
 -1.94978610E+00 -2.29600980E+00  2.40534360E+00 -2.15023140E+00 -1.94978610E+00
 -5.83113600E-01  2.44178820E+00 -2.29600980E+00  2.40534360E+00  2.40534360E+00
  2.44178820E+00 -5.83113600E-01 -2.15023140E+00  2.40534360E+00 -2.15023140E+00
 -2.29600980E+00  2.40534360E+00 -2.29600980E+00  2.40534360E+00  2.40534360E+00
  2.40534360E+00 -5.28446700E-01 -1.94978610E+00 -5.28446700E-01 -1.94978610E+00
 -5.83113600E-01  2.44178820E+00 -1.94978610E+00 -1.94978610E+00 -5.28446700E-01
  2.46001050E+00 -2.15023140E+00 -5.83113600E-01  2.44178820E+00  2.46001050E+00
 -5.28446700E-01 -1.94978610E+00 -2.29600980E+00  2.40534360E+00 -2.15023140E+00
 -1.94978610E+00 -5.83113600E-01  2.44178820E+00 -2.29600980E+00  2.40534360E+00
  2.40534360E+00  2.44178820E+00 -5.83113600E-01 -2.15023140E+00  2.40534360E+00
 -2.15023140E+00 -2.29600980E+00  2.40534360E+00 -2.29600980E+00  2.40534360E+00
  2.40534360E+00  2.40534360E+00 -5.28446700E-01 -1.94978610E+00 -5.28446700E-01
 -1.94978610E+00 -5.83113600E-01  2.44178820E+00 -1.94978610E+00 -1.94978610E+00
 -5.28446700E-01  2.46001050E+00 -2.15023140E+00 -5.83113600E-01  2.44178820E+00
  2.46001050E+00 -5.28446700E-01 -1.94978610E+00 -2.29600980E+00  2.40534360E+00
 -2.15023140E+00 -1.94978610E+00 -5.83113600E-01  2.44178820E+00 -2.29600980E+00
  2.40534360E+00  2.40534360E+00  2.44178820E+00 -5.83113600E-01 -2.15023140E+00
  2.40534360E+00 -2.15023140E+00 -2.29600980E+00  2.40534360E+00 -2.29600980E+00
  2.40534360E+00  2.40534360E+00  2.40534360E+00 -5.28446700E-01 -1.94978610E+00
 -5.28446700E-01 -1.94978610E+00 -5.83113600E-01  2.44178820E+00 -1.94978610E+00
 -1.94978610E+00 -5.28446700E-01  2.46001050E+00 -2.15023140E+00 -5.83113600E-01
  2.44178820E+00  2.46001050E+00 -5.28446700E-01 -1.94978610E+00 -2.29600980E+00
  2.40534360E+00 -2.15023140E+00 -1.94978610E+00 -5.83113600E-01  2.44178820E+00
 -2.29600980E+00  2.40534360E+00  2.40534360E+00  2.44178820E+00 -5.83113600E-01
 -2.15023140E+00  2.40534360E+00 -2.15023140E+00 -2.29600980E+00  2.40534360E+00
 -2.29600980E+00  2.40534360E+00  2.40534360E+00  2.40534360E+00 -5.28446700E-01
 -1.94978610E+00 -5.28446700E-01 -1.94978610E+00 -5.83113600E-01  2.44178820E+00
 -1.94978610E+00 -1.94978610E+00 -5.28446700E-01  2.46001050E+00 -2.15023140E+00
 -5.83113600E-01  2.44178820E+00  2.46001050E+00 -5.28446700E-01 -1.94978610E+00
 -2.29600980E+00  2.40534360E+00 -2.15023140E+00 -1.94978610E+00 -5.83113600E-01
  2.44178820E+00 -2.29600980E+00  2.40534360E+00  2.40534360E+00  2.44178820E+00
 -5.83113600E-01 -2.15023140E+00  2.40534360E+00 -2.15023140E+00 -2.29600980E+00
  2.40534360E+00 -2.29600980E+00  2.40534360E+00  2.40534360E+00  2.40534360E+00
 -5.28446700E-01 -1.94978610E+00 -5.28446700E-01 -1.94978610E+00 -5.83113600E-01
  2.44178820E+00 -1.94978610E+00 -1.94978610E+00 -5.28446700E-01  2.46001050E+00
 -2.15023140E+00 -5.83113600E-01  2.44178820E+00  2.46001050E+00 -5.28446700E-01
 -1.94978610E+00 -2.29600980E+00  2.40534360E+00 -2.15023140E+00 -1.94978610E+00
 -5.83113600E-01  2.44178820E+00 -2.29600980E+00  2.40534360E+00  2.40534360E+00
  2.44178820E+00 -5.83113600E-01 -2.15023140E+00  2.40534360E+00 -2.15023140E+00
 -2.29600980E+00  2.40534360E+00 -2.29600980E+00  2.40534360E+00  2.40534360E+00
  2.40534360E+00 -5.28446700E-01 -1.94978610E+00 -5.28446700E-01 -1.94978610E+00
 -5.83113600E-01  2.44178820E+00 -1.94978610E+00 -1.94978610E+00 -5.28446700E-01
  2.46001050E+00 -2.15023140E+00 -5.83113600E-01  2.44178820E+00  2.46001050E+00
 -5.28446700E-01 -1.94978610E+00 -2.29600980E+00  2.40534360E+00 -2.15023140E+00
 -1.94978610E+00 -5.83113600E-01  2.44178820E+00 -2.29600980E+00  2.40534360E+00
  2.40534360E+00  2.44178820E+00 -5.83113600E-01 -2.15023140E+00  2.40534360E+00
 -2.15023140E+00 -2.29600980E+00  2.40534360E+00 -2.29600980E+00  2.40534360E+00
  2.40534360E+00  2.40534360E+00 -5.28446700E-01 -1.94978610E+00 -5.28446700E-01
 -1.94978610E+00 -5.83113600E-01  2.44178820E+00 -1.94978610E+00 -1.94978610E+00
 -5.28446700E-01  2.46001050E+00 -2.15023140E+00 -5.83113600E-01  2.44178820E+00
  2.46001050E+00 -5.28446700E-01 -1.94978610E+00 -2.29600980E+00  2.40534360E+00
 -2.15023140E+00 -1.94978610E+00 -5.83113600E-01  2.44178820E+00 -2.29600980E+00
  2.40534360E+00  2.40534360E+00  2.44178820E+00 -5.83113600E-01 -2.15023140E+00
  2.40534360E+00 -2.15023140E+00 -2.29600980E+00  2.40534360E+00 -2.29600980E+00
  2.40534360E+00  2.40534360E+00  2.40534360E+00 -5.28446700E-01 -1.94978610E+00
 -5.28446700E-01 -1.94978610E+00 -5.83113600E-01  2.44178820E+00 -1.94978610E+00
 -1.94978610E+00 -5.28446700E-01  2.46001050E+00 -2.15023140E+00 -5.83113600E-01
  2.44178820E+00  2.46001050E+00 -5.28446700E-01 -1.94978610E+00 -2.29600980E+00
  2.40534360E+00 -2.15023140E+00 -1.94978610E+00 -5.83113600E-01  2.44178820E+00
 -2.29600980E+00  2.40534360E+00  2.40534360E+00  2.44178820E+00 -5.83113600E-01
 -2.15023140E+00  2.40534360E+00 -2.15023140E+00 -2.29600980E+00  2.40534360E+00
 -2.29600980E+00  2.40534360E+00  2.40534360E+00  2.40534360E+00 -5.28446700E-01
 -1.94978610E+00 -5.28446700E-01 -1.94978610E+00 -5.83113600E-01  2.44178820E+00
 -1.94978610E+00 -1.94978610E+00 -5.28446700E-01  2.46001050E+00 -2.15023140E+00
 -5.83113600E-01  2.44178820E+00  2.46001050E+00 -5.28446700E-01 -1.94978610E+00
 -2.29600980E+00  2.40534360E+00 -2.15023140E+00 -1.94978610E+00 -5.83113600E-01
  2.44178820E+00 -2.29600980E+00  2.40534360E+00  2.40534360E+00  2.44178820E+00
 -5.83113600E-01 -2.15023140E+00  2.40534360E+00 -2.15023140E+00 -2.29600980E+00
  2.40534360E+00 -2.29600980E+00  2.40534360E+00  2.40534360E+00  2.40534360E+00
 -5.28446700E-01 -1.94978610E+00 -5.28446700E-01 -1.94978610E+00 -5.83113600E-01
  2.44178820E+00 -1.94978610E+00 -1.94978610E+00 -5.28446700E-01  2.46001050E+00
 -2.15023140E+00 -5.83113600E-01  2.44178820E+00  2.46001050E+00 -5.28446700E-01
 -1.94978610E+00 -2.29600980E+00  2.40534360E+00 -2.15023140E+00 -1.94978610E+00
 -5.83113600E-01  2.44178820E+00 -2.29600980E+00  2.40534360E+00  2.40534360E+00
  2.44178820E+00 -5.83113600E-01 -2.15023140E+00  2.40534360E+00 -2.15023140E+00
 -2.29600980E+00  2.40534360E+00 -2.29600980E+00  2.40534360E+00  2.40534360E+00
  2.40534360E+00 -5.28446700E-01 -1.94978610E+00 -5.28446700E-01 -1.94978610E+00
 -5.83113600E-01  2.44178820E+00 -1.94978610E+00 -1.94978610E+00 -5.28446700E-01
  2.46001050E+00 -2.15023140E+00 -5.83113600E-01  2.44178820E+00  2.46001050E+00
 -5.28446700E-01 -1.94978610E+00 -2.29600980E+00  2.40534360E+00 -2.15023140E+00
 -1.94978610E+00 -5.83113600E-01  2.44178820E+00 -2.29600980E+00  2.40534360E+00
  2.40534360E+00  2.44178820E+00 -5.83113600E-01 -2.15023140E+00  2.40534360E+00
 -2.15023140E+00 -2.29600980E+00  2.40534360E+00 -2.29600980E+00  2.40534360E+00
  2.40534360E+00  2.40534360E+00 -5.28446700E-01 -1.94978610E+00 -5.28446700E-01
 -1.94978610E+00 -5.83113600E-01  2.44178820E+00 -1.94978610E+00 -1.94978610E+00
 -5.28446700E-01  2.46001050E+00 -2.15023140E+00 -5.83113600E-01  2.44178820E+00
  2.46001050E+00 -5.28446700E-01 -1.94978610E+00 -2.29600980E+00  2.40534360E+00
 -2.15023140E+00 -1.94978610E+00 -5.83113600E-01  2.44178820E+00 -2.29600980E+00
  2.40534360E+00  2.40534360E+00  2.44178820E+00 -5.83113600E-01 -2.15023140E+00
  2.40534360E+00 -2.15023140E+00 -2.29600980E+00  2.40534360E+00 -2.29600980E+00
  2.40534360E+00  2.40534360E+00  2.40534360E+00 -5.28446700E-01 -1.94978610E+00
 -5.28446700E-01 -1.94978610E+00 -5.83113600E-01  2.44178820E+00 -1.94978610E+00
 -1.94978610E+00 -5.28446700E-01  2.46001050E+00 -2.15023140E+00 -5.83113600E-01
  2.44178820E+00  2.46001050E+00 -5.28446700E-01 -1.94978610E+00 -2.29600980E+00
  2.40534360E+00 -2.15023140E+00 -1.94978610E+00 -5.83113600E-01  2.44178820E+00
 -2.29600980E+00  2.40534360E+00  2.40534360E+00  2.44178820E+00 -5.83113600E-01
 -2.15023140E+00  2.40534360E+00 -2.15023140E+00 -2.29600980E+00  2.40534360E+00
 -2.29600980E+00  2.40534360E+00  2.40534360E+00  2.40534360E+00 -5.28446700E-01
 -1.94978610E+00 -5.28446700E-01 -1.94978610E+00 -5.83113600E-01  2.44178820E+00
 -1.94978610E+00 -1.94978610E+00 -5.28446700E-01  2.46001050E+00 -2.15023140E+00
 -5.83113600E-01  2.44178820E+00  2.46001050E+00 -5.28446700E-01 -1.94978610E+00
 -2.29600980E+00  2.40534360E+00 -2.15023140E+00 -1.94978610E+00 -5.83113600E-01
  2.44178820E+00 -2.29600980E+00  2.40534360E+00  2.40534360E+00  2.44178820E+00
 -5.83113600E-01 -2.15023140E+00  2.40534360E+00 -2.15023140E+00 -2.29600980E+00
  2.40534360E+00 -2.29600980E+00  2.40534360E+00  2.40534360E+00  2.40534360E+00
 -5.28446700E-01 -1.94978610E+00 -5.28446700E-01 -1.94978610E+00 -5.83113600E-01
  2.44178820E+00 -1.94978610E+00 -1.94978610E+00 -5.28446700E-01  2.46001050E+00
 -2.15023140E+00 -5.83113600E-01  2.44178820E+00  2.46001050E+00 -5.28446700E-01
 -1.94978610E+00 -2.29600980E+00  2.40534360E+00 -2.15023140E+00 -1.94978610E+00
 -5.83113600E-01  2.44178820E+00 -2.29600980E+00  2.40534360E+00  2.40534360E+00
  2.44178820E+00 -5.83113600E-01 -2.15023140E+00  2.40534360E+00 -2.15023140E+00
 -2.29600980E+00  2.40534360E+00 -2.29600980E+00  2.40534360E+00  2.40534360E+00
  2.40534360E+00 -5.28446700E-01 -1.94978610E+00 -5.28446700E-01 -1.94978610E+00
 -5.83113600E-01  2.44178820E+00 -1.94978610E+00 -1.94978610E+00 -5.28446700E-01
  2.46001050E+00 -2.15023140E+00 -5.83113600E-01  2.44178820E+00  2.46001050E+00
 -5.28446700E-01 -1.94978610E+00 -2.29600980E+00  2.40534360E+00 -2.15023140E+00
 -1.94978610E+00 -5.83113600E-01  2.44178820E+00 -2.29600980E+00  2.40534360E+00
  2.40534360E+00  2.44178820E+00 -5.83113600E-01 -2.15023140E+00  2.40534360E+00
 -2.15023140E+00 -2.29600980E+00  2.40534360E+00 -2.29600980E+00  2.40534360E+00
  2.40534360E+00  2.40534360E+00 -5.28446700E-01 -1.94978610E+00 -5.28446700E-01
 -1.94978610E+00 -5.83113600E-01  2.44178820E+00 -1.94978610E+00 -1.94978610E+00
 -5.28446700E-01  2.46001050E+00 -2.15023140E+00 -5.83113600E-01  2.44178820E+00
  2.46001050E+00 -5.28446700E-01 -1.94978610E+00 -2.29600980E+00  2.40534360E+00
 -2.15023140E+00 -1.94978610E+00 -5.83113600E-01  2.44178820E+00 -2.29600980E+00
  2.40534360E+00  2.40534360E+00  2.44178820E+00 -5.83113600E-01 -2.15023140E+00
  2.40534360E+00 -2.15023140E+00 -2.29600980E+00  2.40534360E+00 -2.29600980E+00
  2.40534360E+00  2.40534360E+00  2.40534360E+00 -5.28446700E-01 -1.94978610E+00
 -5.28446700E-01 -1.94978610E+00 -5.83113600E-01  2.44178820E+00 -1.94978610E+00
 -1.94978610E+00 -5.28446700E-01  2.46001050E+00 -2.15023140E+00 -5.83113600E-01
  2.44178820E+00  2.46001050E+00 -5.28446700E-01 -1.94978610E+00 -2.29600980E+00
  2.40534360E+00 -2.15023140E+00 -1.94978610E+00 -5.83113600E-01  2.44178820E+00
 -2.29600980E+00  2.40534360E+00  2.40534360E+00  2.44178820E+00 -5.83113600E-01
 -2.15023140E+00  2.40534360E+00 -2.15023140E+00 -2.29600980E+00  2.40534360E+00
 -2.29600980E+00  2.40534360E+00  2.40534360E+00  2.40534360E+00 -5.28446700E-01
 -1.94978610E+00 -5.28446700E-01 -1.94978610E+00 -5.83113600E-01  2.44178820E+00
 -1.94978610E+00 -1.94978610E+00 -5.28446700E-01  2.46001050E+00 -2.15023140E+00
 -5.83113600E-01  2.44178820E+00  2.46001050E+00 -5.28446700E-01 -1.94978610E+00
 -2.29600980E+00  2.40534360E+00 -2.15023140E+00 -1.94978610E+00 -5.83113600E-01
  2.44178820E+00 -2.29600980E+00  2.40534360E+00  2.40534360E+00  2.44178820E+00
 -5.83113600E-01 -2.15023140E+00  2.40534360E+00 -2.15023140E+00 -2.29600980E+00
  2.40534360E+00 -2.29600980E+00  2.40534360E+00  2.40534360E+00  2.40534360E+00
 -5.28446700E-01 -1.94978610E+00 -5.28446700E-01 -1.94978610E+00 -5.83113600E-01
  2.44178820E+00 -1.94978610E+00 -1.94978610E+00 -5.28446700E-01  2.46001050E+00
 -2.15023140E+00 -5.83113600E-01  2.44178820E+00  2.46001050E+00 -5.28446700E-01
 -1.94978610E+00 -2.29600980E+00  2.40534360E+00 -2.15023140E+00 -1.94978610E+00
 -5.83113600E-01  2.44178820E+00 -2.29600980E+00  2.40534360E+00  2.40534360E+00
  2.44178820E+00 -5.83113600E-01 -2.15023140E+00  2.40534360E+00 -2.15023140E+00
 -2.29600980E+00  2.40534360E+00 -2.29600980E+00  2.40534360E+00  2.40534360E+00
  2.40534360E+00 -5.28446700E-01 -1.94978610E+00 -5.28446700E-01 -1.94978610E+00
 -5.83113600E-01  2.44178820E+00 -1.94978610E+00 -1.94978610E+00 -5.28446700E-01
  2.46001050E+00 -2.15023140E+00 -5.83113600E-01  2.44178820E+00  2.46001050E+00
 -5.28446700E-01 -1.94978610E+00 -2.29600980E+00  2.40534360E+00 -2.15023140E+00
 -1.94978610E+00 -5.83113600E-01  2.44178820E+00 -2.29600980E+00  2.40534360E+00
  2.40534360E+00  2.44178820E+00 -5.83113600E-01 -2.15023140E+00  2.40534360E+00
 -2.15023140E+00 -2.29600980E+00  2.40534360E+00 -2.29600980E+00  2.40534360E+00
  2.40534360E+00  2.40534360E+00 -5.28446700E-01 -1.94978610E+00 -5.28446700E-01
 -1.94978610E+00 -5.83113600E-01  2.44178820E+00 -1.94978610E+00 -1.94978610E+00
 -5.28446700E-01  2.46001050E+00 -2.15023140E+00 -5.83113600E-01  2.44178820E+00
  2.46001050E+00 -5.28446700E-01 -1.94978610E+00 -2.29600980E+00  2.40534360E+00
 -2.15023140E+00 -1.94978610E+00 -5.83113600E-01  2.44178820E+00 -2.29600980E+00
  2.40534360E+00  2.40534360E+00  2.44178820E+00 -5.83113600E-01 -2.15023140E+00
  2.40534360E+00 -2.15023140E+00 -2.29600980E+00  2.40534360E+00 -2.29600980E+00
  2.40534360E+00  2.40534360E+00  2.40534360E+00 -5.28446700E-01 -1.94978610E+00
 -5.28446700E-01 -1.94978610E+00 -5.83113600E-01  2.44178820E+00 -1.94978610E+00
 -1.94978610E+00 -5.28446700E-01  2.46001050E+00 -2.15023140E+00 -5.83113600E-01
  2.44178820E+00  2.46001050E+00 -5.28446700E-01 -1.94978610E+00 -2.29600980E+00
  2.40534360E+00 -2.15023140E+00 -1.94978610E+00 -5.83113600E-01  2.44178820E+00
 -2.29600980E+00  2.40534360E+00  2.40534360E+00  2.44178820E+00 -5.83113600E-01
 -2.15023140E+00  2.40534360E+00 -2.15023140E+00 -2.29600980E+00  2.40534360E+00
 -2.29600980E+00  2.40534360E+00  2.40534360E+00  2.40534360E+00 -5.28446700E-01
 -1.94978610E+00 -5.28446700E-01 -1.94978610E+00 -5.83113600E-01  2.44178820E+00
 -1.94978610E+00 -1.94978610E+00 -5.28446700E-01  2.46001050E+00 -2.15023140E+00
 -5.83113600E-01  2.44178820E+00  2.46001050E+00 -5.28446700E-01 -1.94978610E+00
 -2.29600980E+00  2.40534360E+00 -2.15023140E+00 -1.94978610E+00 -5.83113600E-01
  2.44178820E+00 -2.29600980E+00  2.40534360E+00  2.40534360E+00  2.44178820E+00
 -5.83113600E-01 -2.15023140E+00  2.40534360E+00 -2.15023140E+00 -2.29600980E+00
  2.40534360E+00 -2.29600980E+00  2.40534360E+00  2.40534360E+00  2.40534360E+00
 -5.28446700E-01 -1.94978610E+00 -5.28446700E-01 -1.94978610E+00 -5.83113600E-01
  2.44178820E+00 -1.94978610E+00 -1.94978610E+00 -5.28446700E-01  2.46001050E+00
 -2.15023140E+00 -5.83113600E-01  2.44178820E+00  2.46001050E+00 -5.28446700E-01
 -1.94978610E+00 -2.29600980E+00  2.40534360E+00 -2.15023140E+00 -1.94978610E+00
 -5.83113600E-01  2.44178820E+00 -2.29600980E+00  2.40534360E+00  2.40534360E+00
  2.44178820E+00 -5.83113600E-01 -2.15023140E+00  2.40534360E+00 -2.15023140E+00
 -2.29600980E+00  2.40534360E+00 -2.29600980E+00  2.40534360E+00  2.40534360E+00
  2.40534360E+00 -5.28446700E-01 -1.94978610E+00 -5.28446700E-01 -1.94978610E+00
 -5.83113600E-01  2.44178820E+00 -1.94978610E+00 -1.94978610E+00 -5.28446700E-01
  2.46001050E+00 -2.15023140E+00 -5.83113600E-01  2.44178820E+00  2.46001050E+00
 -5.28446700E-01 -1.94978610E+00 -2.29600980E+00  2.40534360E+00 -2.15023140E+00
 -1.94978610E+00 -5.83113600E-01  2.44178820E+00 -2.29600980E+00  2.40534360E+00
  2.40534360E+00  2.44178820E+00 -5.83113600E-01 -2.15023140E+00  2.40534360E+00
 -2.15023140E+00 -2.29600980E+00  2.40534360E+00 -2.29600980E+00  2.40534360E+00
  2.40534360E+00  2.40534360E+00 -5.28446700E-01 -1.94978610E+00 -5.28446700E-01
 -1.94978610E+00 -5.83113600E-01  2.44178820E+00 -1.94978610E+00 -1.94978610E+00
 -5.28446700E-01  2.46001050E+00 -2.15023140E+00 -5.83113600E-01  2.44178820E+00
  2.46001050E+00 -5.28446700E-01 -1.94978610E+00 -2.29600980E+00  2.40534360E+00
 -2.15023140E+00 -1.94978610E+00 -5.83113600E-01  2.44178820E+00 -2.29600980E+00
  2.40534360E+00  2.40534360E+00  2.44178820E+00 -5.83113600E-01 -2.15023140E+00
  2.40534360E+00 -2.15023140E+00 -2.29600980E+00  2.40534360E+00 -2.29600980E+00
  2.40534360E+00  2.40534360E+00  2.40534360E+00 -5.28446700E-01 -1.94978610E+00
 -5.28446700E-01 -1.94978610E+00 -5.83113600E-01  2.44178820E+00 -1.94978610E+00
 -1.94978610E+00 -5.28446700E-01  2.46001050E+00 -2.15023140E+00 -5.83113600E-01
  2.44178820E+00  2.46001050E+00 -5.28446700E-01 -1.94978610E+00 -2.29600980E+00
  2.40534360E+00 -2.15023140E+00 -1.94978610E+00 -5.83113600E-01  2.44178820E+00
 -2.29600980E+00  2.40534360E+00  2.40534360E+00  2.44178820E+00 -5.83113600E-01
 -2.15023140E+00  2.40534360E+00 -2.15023140E+00 -2.29600980E+00  2.40534360E+00
 -2.29600980E+00  2.40534360E+00  2.40534360E+00  2.40534360E+00 -5.28446700E-01
 -1.94978610E+00 -5.28446700E-01 -1.94978610E+00 -5.83113600E-01  2.44178820E+00
 -1.94978610E+00 -1.94978610E+00 -5.28446700E-01  2.46001050E+00 -2.15023140E+00
 -5.83113600E-01  2.44178820E+00  2.46001050E+00 -5.28446700E-01 -1.94978610E+00
 -2.29600980E+00  2.40534360E+00 -2.15023140E+00 -1.94978610E+00 -5.83113600E-01
  2.44178820E+00 -2.29600980E+00  2.40534360E+00  2.40534360E+00  2.44178820E+00
 -5.83113600E-01 -2.15023140E+00  2.40534360E+00 -2.15023140E+00 -2.29600980E+00
  2.40534360E+00 -2.29600980E+00  2.40534360E+00  2.40534360E+00  2.40534360E+00
%FLAG ATOMIC_NUMBER                                                             
%FORMAT(10I8)                                                                   
       6       6       6       6       6       1       6       6       6       1
       6       6       1       1       6       6       6       1       6       6
       6       1       6       1       1       1       6       6       1       6
       6       1       6       1       1       1       6       6       6       6
       6       1       6       6       6       1       6       6       1       1
       6       6       6       1       6       6       6       1       6       1
       1       1       6       6       1       6       6       1       6       1
       1       1       6       6       6       6       6       1       6       6
       6       1       6       6       1       1       6       6       6       1
       6       6       6       1       6       1       1       1       6       6
       1       6       6       1       6       1       1       1       6       6
       6       6       6       1       6       6       6       1       6       6
       1       1       6       6       6       1       6       6       6       1
       6       1       1       1       6       6       1       6       6       1
       6       1       1       1       6       6       6       6       6       1
       6       6       6       1       6       6       1       1       6       6
       6       1       6       6       6       1       6       1       1       1
       6       6       1       6       6       1       6       1       1       1
       6       6       6       6       6       1       6       6       6       1
       6       6       1       1       6       6       6       1       6       6
       6       1       6       1       1       1       6       6       1       6
       6       1       6       1       1       1       6       6       6       6
       6       1       6       6       6       1       6       6       1       1
       6       6       6       1       6       6       6       1       6       1
       1       1       6       6       1       6       6       1       6       1
       1       1       6       6       6       6       6       1       6       6
       6       1       6       6       1       1       6       6       6       1
       6       6       6       1       6       1       1       1       6       6
       1       6       6       1       6       1       1       1       6       6
       6       6       6       1       6       6       6       1       6       6
       1       1       6       6       6       1       6       6       6       1
       6       1       1       1       6       6       1       6       6       1
       6       1       1       1       6       6       6       6       6       1
       6       6       6       1       6       6       1       1       6       6
       6       1       6       6       6       1       6       1       1       1
       6       6       1       6       6       1       6       1       1       1
       6       6       6       6       6       1       6       6       6       1
       6       6       1       1       6       6       6       1       6       6
       6       1       6       1       1       1       6       6       1       6
       6       1       6       1       1       1       6       6       6       6
       6       1       6       6       6       1       6       6       1       1
       6       6       6       1       6       6       6       1       6       1
       1       1       6       6       1       6       6       1       6       1
       1       1       6       6       6       6       6       1       6       6
       6       1       6       6       1       1       6       6       6       1
       6       6       6       1       6       1       1       1       6       6
       1       6       6       1       6       1       1       1       6       6
       6       6       6       1       6       6       6       1       6       6
       1       1       6       6       6       1       6       6       6       1
       6       1       1       1       6       6       1       6       6       1
       6       1       1       1       6       6       6       6       6       1
       6       6       6       1       6       6       1       1       6       6
       6       1       6       6       6       1       6       1       1       1
       6       6       1       6       6       1       6       1       1       1
       6       6       6       6       6       1       6       6       6       1
       6       6       1       1       6       6       6       1       6       6
       6       1       6       1       1       1       6       6       1       6
       6       1       6       1       1       1       6       6       6       6
       6       1       6       6       6       1       6       6       1       1
       6       6       6       1       6       6       6       1       6       1
       1       1       6       6       1       6       6       1       6       1
       1       1       6       6       6       6       6       1       6       6
       6       1       6       6       1       1       6       6       6       1
       6       6       6       1       6       1       1       1       6       6
       1       6       6       1       6       1       1       1       6       6
       6       6       6       1       6       6       6       1       6       6
       1       1       6       6       6       1       6       6       6       1
       6       1       1       1       6       6       1       6       6       1
       6       1       1       1       6       6       6       6       6       1
       6       6       6       1       6       6       1       1       6       6
       6       1       6       6       6       1       6       1       1       1
       6       6       1       6       6       1       6       1       1       1
       6       6       6       6       6       1       6       6       6       1
       6       6       1       1       6       6       6       1       6       6
       6       1       6       1       1       1       6       6       1       6
       6       1       6       1       1       1       6       6       6       6
       6       1       6       6       6       1       6       6       1       1
       6       6       6       1       6       6       6       1       6       1
       1       1       6       6       1       6       6       1       6       1
       1       1       6       6       6       6       6       1       6       6
       6       1       6       6       1       1       6       6       6       1
       6       6       6       1       6       1       1       1       6       6
       1       6       6       1       6       1       1       1       6       6
       6       6       6       1       6       6       6       1       6       6
       1       1       6       6       6       1       6       6       6       1
       6       1       1       1       6       6       1       6       6       1
       6       1       1       1       6       6       6       6       6       1
       6       6       6       1       6       6       1       1       6       6
       6       1       6       6       6       1       6       1       1       1
       6       6       1       6       6       1       6       1       1       1
       6       6       6       6       6       1       6       6       6       1
       6       6       1       1       6       6       6       1       6       6
       6       1       6       1       1       1       6       6       1       6
       6       1       6       1       1       1       6       6       6       6
       6       1       6       6       6       1       6       6       1       1
       6       6       6       1       6       6       6       1       6       1
       1       1       6       6       1       6       6       1       6       1
       1       1       6       6       6       6       6       1       6       6
       6       1       6       6       1       1       6       6       6       1
       6       6       6       1       6       1       1       1       6       6
       1       6       6       1       6       1       1       1       6       6
       6       6       6       1       6       6       6       1       6       6
       1       1       6       6       6       1       6       6       6       1
       6       1       1       1       6       6       1       6       6       1
       6       1       1       1       6       6       6       6       6       1
       6       6       6       1       6       6       1       1       6       6
       6       1       6       6       6       1       6       1       1       1
       6       6       1       6       6       1       6       1       1       1
       6       6       6       6       6       1       6       6       6       1
       6       6       1       1       6       6       6       1       6       6
       6       1       6       1       1       1       6       6       1       6
       6       1       6       1       1       1       6       6       6       6
       6       1       6       6       6       1       6       6       1       1
       6       6       6       1       6       6       6       1       6       1
       1       1       6       6       1       6       6       1       6       1
       1       1       6       6       6       6       6       1       6       6
       6       1       6       6       1       1       6       6       6       1
       6       6       6       1       6       1       1       1       6       6
       1       6       6       1       6       1       1       1       6       6
       6       6       6       1       6       6       6       1       6       6
       1       1       6       6       6       1       6       6       6       1
       6       1       1       1       6       6       1       6       6       1
       6       1       1       1       6       6       6       6       6       1
       6       6       6       1       6       6       1       1       6       6
       6       1       6       6       6       1       6       1       1       1
       6       6       1       6       6       1       6       1       1       1
       6       6       6       6       6       1       6       6       6       1
       6       6       1       1       6       6       6       1       6       6
       6       1       6       1       1       1       6       6       1       6
       6       1       6       1       1       1       6       6       6       6
       6       1       6       6       6       1       6       6       1       1
       6       6       6       1       6       6       6       1       6       1
       1       1       6       6       1       6       6       1       6       1
       1       1       6       6       6       6       6       1       6       6
       6       1       6       6       1       1       6       6       6       1
       6       6       6       1       6       1       1       1       6       6
       1       6       6       1       6       1       1       1       6       6
       6       6       6       1       6       6       6       1       6       6
       1       1       6       6       6       1       6       6       6       1
       6       1       1       1       6       6       1       6       6       1
       6       1       1       1       6       6       6       6       6       1
       6       6       6       1       6       6       1       1       6       6
       6       1       6       6       6       1       6       1       1       1
       6       6       1       6       6       1       6       1       1       1
       6       6       6       6       6       1       6       6       6       1
       6       6       1       1       6       6       6       1       6       6
       6       1       6       1       1       1       6       6       1       6
       6       1       6       1       1       1       6       6       6       6
       6       1       6       6       6       1       6       6       1       1
       6       6       6       1       6       6       6       1       6       1
       1       1       6       6       1       6       6       1       6       1
       1       1       6       6       6       6       6       1       6       6
       6       1       6       6       1       1       6       6       6       1
       6       6       6       1       6       1       1       1       6       6
       1       6       6       1       6       1       1       1       6       6
       6       6       6       1       6       6       6       1       6       6
       1       1       6       6       6       1       6       6       6       1
       6       1       1       1       6       6       1       6       6       1
       6       1       1       1       6       6       6       6       6       1
       6       6       6       1       6       6       1       1       6       6
       6       1       6       6       6       1       6       1       1       1
       6       6       1       6       6       1       6       1       1       1
       6       6       6       6       6       1       6       6       6       1
       6       6       1       1       6       6       6       1       6       6
       6       1       6       1       1       1       6       6       1       6
       6       1       6       1       1       1       6       6       6       6
       6       1       6       6       6       1       6       6       1       1
       6       6       6       1       6       6       6       1       6       1
       1       1       6       6       1       6       6       1       6       1
       1       1       6       6       6       6       6       1       6       6
       6       1       6       6       1       1       6       6       6       1
       6       6       6       1       6       1       1       1       6       6
       1       6       6       1       6       1       1       1       6       6
       6       6       6       1       6       6       6       1       6       6
       1       1       6       6       6       1       6       6       6       1
       6       1       1       1       6       6       1       6       6       1
       6       1       1       1       6       6       6       6       6       1
       6       6       6       1       6       6       1       1       6       6
       6       1       6       6       6       1       6       1       1       1
       6       6       1       6       6       1       6       1       1       1
       6       6       6       6       6       1       6       6       6       1
       6       6       1       1       6       6       6       1       6       6
       6       1       6       1       1       1       6       6       1       6
       6       1       6       1       1       1       6       6       6       6
       6       1       6       6       6       1       6       6       1       1
       6       6       6       1       6       6       6       1       6       1
       1       1       6       6       1       6       6       1       6       1
       1       1       6       6       6       6       6       1       6       6
       6       1       6       6       1       1       6       6       6       1
       6       6       6       1       6       1       1       1       6       6
       1       6       6       1       6       1       1       1       6       6
       6       6       6       1       6       6       6       1       6       6
       1       1       6       6       6       1       6       6       6       1
       6       1       1       1       6       6       1       6       6       1
       6       1       1       1       6       6       6       6       6       1
       6       6       6       1       6       6       1       1       6       6
       6       1       6       6       6       1       6       1       1       1
       6       6       1       6       6       1       6       1       1       1
       6       6       6       6       6       1       6       6       6       1
       6       6       1       1       6       6       6       1       6       6
       6       1       6       1       1       1       6       6       1       6
       6       1       6       1       1       1       6       6       6       6
       6       1       6       6       6       1       6       6       1       1
       6       6       6       1       6       6       6       1       6       1
       1       1       6       6       1       6       6       1       6       1
       1       1       6       6       6       6       6       1       6       6
       6       1       6       6       1       1       6       6       6       1
       6       6       6       1       6       1       1       1       6       6
       1       6       6       1       6       1       1       1       6       6
       6       6       6       1       6       6       6       1       6       6
       1       1       6       6       6       1       6       6       6       1
       6       1       1       1       6       6       1       6       6       1
       6       1       1       1       6       6       6       6       6       1
       6       6       6       1       6       6       1       1       6       6
       6       1       6       6       6       1       6       1       1       1
       6       6       1       6       6       1       6       1       1       1
       6       6       6       6       6       1       6       6       6       1
       6       6       1       1       6       6       6       1       6       6
       6       1       6       1       1       1       6       6       1       6
       6       1       6       1       1       1       6       6       6       6
       6       1       6       6       6       1       6       6       1       1
       6       6       6       1       6       6       6       1       6       1
       1       1       6       6       1       6       6       1       6       1
       1       1       6       6       6       6       6       1       6       6
       6       1       6       6       1       1       6       6       6       1
       6       6       6       1       6       1       1       1       6       6
       1       6       6       1       6       1       1       1       6       6
       6       6       6       1       6       6       6       1       6       6
       1       1       6       6       6       1       6       6       6       1
       6       1       1       1       6       6       1       6       6       1
       6       1       1       1       6       6       6       6       6       1
       6       6       6       1       6       6       1       1       6       6
       6       1       6       6       6       1       6       1       1       1
       6       6       1       6       6       1       6       1       1       1
       6       6       6       6       6       1       6       6       6       1
       6       6       1       1       6       6       6       1       6       6
       6       1       6       1       1       1       6       6       1       6
       6       1       6       1       1       1       6       6       6       6
       6       1       6       6       6       1       6       6       1       1
       6       6       6       1       6       6       6       1       6       1
       1       1       6       6       1       6       6       1       6       1
       1       1       6       6       6       6       6       1       6       6
       6       1       6       6       1       1       6       6       6       1
       6       6       6       1       6       1       1       1       6       6
       1       6       6       1       6       1       1       1       6       6
       6       6       6       1       6       6       6       1       6       6
       1       1       6       6       6       1       6       6       6       1
       6       1       1       1       6       6       1       6       6       1
       6       1       1       1       6       6       6       6       6       1
       6       6       6       1       6       6       1       1       6       6
       6       1       6       6       6       1       6       1       1       1
       6       6       1       6       6       1       6       1       1       1
       6       6       6       6       6       1       6       6       6       1
       6       6       1       1       6       6       6       1       6       6
       6       1       6       1       1       1       6       6       1       6
       6       1       6       1       1       1       6       6       6       6
       6       1       6       6       6       1       6       6       1       1
       6       6       6       1       6       6       6       1       6       1
       1       1       6       6       1       6       6       1       6       1
       1       1       6       6       6       6       6       1       6       6
       6       1       6       6       1       1       6       6       6       1
       6       6       6       1       6       1       1       1       6       6
       1       6       6       1       6       1       1       1       6       6
       6       6       6       1       6       6       6       1       6       6
       1       1       6       6       6       1       6       6       6       1
       6       1       1       1       6       6       1       6       6       1
       6       1       1       1       6       6       6       6       6       1
       6       6       6       1       6       6       1       1       6       6
       6       1       6       6       6       1       6       1       1       1
       6       6       1       6       6       1       6       1       1       1
       6       6       6       6       6       1       6       6       6       1
       6       6       1       1       6       6       6       1       6       6
       6       1       6       1       1       1       6       6       1       6
       6       1       6       1       1       1       6       6       6       6
       6       1       6       6       6       1       6       6       1       1
       6       6       6       1       6       6       6       1       6       1
       1       1       6       6       1       6       6       1       6       1
       1       1       6       6       6       6       6       1       6       6
       6       1       6       6       1       1       6       6       6       1
       6       6       6       1       6       1       1       1       6       6
       1       6       6       1       6       1       1       1       6       6
       6       6       6       1       6       6       6       1       6       6
       1       1       6       6       6       1       6       6       6       1
       6       1       1       1       6       6       1       6       6       1
       6       1       1       1       6       6       6       6       6       1
       6       6       6       1       6       6       1       1       6       6
       6       1       6       6       6       1       6       1       1       1
       6       6       1       6       6       1       6       1       1       1
       6       6       6       6       6       1       6       6       6       1
       6       6       1       1       6       6       6       1       6       6
       6       1       6       1       1       1       6       6       1       6
       6       1       6       1       1       1       6       6       6       6
       6       1       6       6       6       1       6       6       1       1
       6       6       6       1       6       6       6       1       6       1
       1       1       6       6       1       6       6       1       6       1
       1       1       6       6       6       6       6       1       6       6
       6       1       6       6       1       1       6       6       6       1
       6       6       6       1       6       1       1       1       6       6
       1       6       6       1       6       1       1       1       6       6
       6       6       6       1       6       6       6       1       6       6
       1       1       6       6       6       1       6       6       6       1
       6       1       1       1       6       6       1       6       6       1
       6       1       1       1       6       6       6       6       6       1
       6       6       6       1       6       6       1       1       6       6
       6       1       6       6       6       1       6       1       1       1
       6       6       1       6       6       1       6       1       1       1
       6       6       6       6       6       1       6       6       6       1
       6       6       1       1       6       6       6       1       6       6
       6       1       6       1       1       1       6       6       1       6
       6       1       6       1       1       1       6       6       6       6
       6       1       6       6       6       1       6       6       1       1
       6       6       6       1       6       6       6       1       6       1
       1       1       6       6       1       6       6       1       6       1
       1       1       6       6       6       6       6       1       6       6
       6       1       6       6       1       1       6       6       6       1
       6       6       6       1       6       1       1       1       6       6
       1       6       6       1       6       1       1       1       6       6
       6       6       6       1       6       6       6       1       6       6
       1       1       6       6       6       1       6       6       6       1
       6       1       1       1       6       6       1       6       6       1
       6       1       1       1       6       6       6       6       6       1
       6       6       6       1       6       6       1       1       6       6
       6       1       6       6       6       1       6       1       1       1
       6       6       1       6       6       1       6       1       1       1
       6       6       6       6       6       1       6       6       6       1
       6       6       1       1       6       6       6       1       6       6
       6       1       6       1       1       1       6       6       1       6
       6       1       6       1       1       1       6       6       6       6
       6       1       6       6       6       1       6       6       1       1
       6       6       6       1       6       6       6       1       6       1
       1       1       6       6       1       6       6       1       6       1
       1       1       6       6       6       6       6       1       6       6
       6       1       6       6       1       1       6       6       6       1
       6       6       6       1       6       1       1       1       6       6
       1       6       6       1       6       1       1       1       6       6
       6       6       6       1       6       6       6       1       6       6
       1       1       6       6       6       1       6       6       6       1
       6       1       1       1       6       6       1       6       6       1
       6       1       1       1       6       6       6       6       6       1
       6       6       6       1       6       6       1       1       6       6
       6       1       6       6       6       1       6       1       1       1
       6       6       1       6       6       1       6       1       1       1
       6       6       6       6       6       1       6       6       6       1
       6       6       1       1       6       6       6       1       6       6
       6       1       6       1       1       1       6       6       1       6
       6       1       6       1       1       1       6       6       6       6
       6       1       6       6       6       1       6       6       1       1
       6       6       6       1       6       6       6       1       6       1
       1       1       6       6       1       6       6       1       6       1
       1       1       6       6       6       6       6       1       6       6
       6       1       6       6       1       1       6       6       6       1
       6       6       6       1       6       1       1       1       6       6
       1       6       6       1       6       1       1       1       6       6
       6       6       6       1       6       6       6       1       6       6
       1       1       6       6       6       1       6       6       6       1
       6       1       1       1       6       6       1       6       6       1
       6       1       1       1       6       6       6       6       6       1
       6       6       6       1       6       6       1       1       6       6
       6       1       6       6       6       1       6       1       1       1
       6       6       1       6       6       1       6       1       1       1
       6       6       6       6       6       1       6       6       6       1
       6       6       1       1       6       6       6       1       6       6
       6       1       6       1       1       1       6       6       1       6
       6       1       6       1       1       1       6       6       6       6
       6       1       6       6       6       1       6       6       1       1
       6       6       6       1       6       6       6       1       6       1
       1       1       6       6       1       6       6       1       6       1
       1       1       6       6       6       6       6       1       6       6
       6       1       6       6       1       1       6       6       6       1
       6       6       6       1       6       1       1       1       6       6
       1       6       6       1       6       1       1       1       6       6
       6       6       6       1       6       6       6       1       6       6
       1       1       6       6       6       1       6       6       6       1
       6       1       1       1       6       6       1       6       6       1
       6       1       1       1       6       6       6       6       6       1
       6       6       6       1       6       6       1       1       6       6
       6       1       6       6       6       1       6       1       1       1
       6       6       1       6       6       1       6       1       1       1
       6       6       6       6       6       1       6       6       6       1
       6       6       1       1       6       6       6       1       6       6
       6       1       6       1       1       1       6       6       1       6
       6       1       6       1       1       1       6       6       6       6
       6       1       6       6       6       1       6       6       1       1
       6       6       6       1       6       6       6       1       6       1
       1       1       6       6       1       6       6       1       6       1
       1       1       6       6       6       6       6       1       6       6
       6       1       6       6       1       1       6       6       6       1
       6       6       6       1       6       1       1       1       6       6
       1       6       6       1       6       1       1       1       6       6
       6       6       6       1       6       6       6       1       6       6
       1       1       6       6       6       1       6       6       6       1
       6       1       1       1       6       6       1       6       6       1
       6       1       1       1       6       6       6       6       6       1
       6       6       6       1       6       6       1       1       6       6
       6       1       6       6       6       1       6       1       1       1
       6       6       1       6       6       1       6       1       1       1
       6       6       6       6       6       1       6       6       6       1
       6       6       1       1       6       6       6       1       6       6
       6       1       6       1       1       1       6       6       1       6
       6       1       6       1       1       1       6       6       6       6
       6       1       6       6       6       1       6       6       1       1
       6       6       6       1       6       6       6       1       6       1
       1       1       6       6       1       6       6       1       6       1
       1       1       6       6       6       6       6       1       6       6
       6       1       6       6       1       1       6       6       6       1
       6       6       6       1       6       1       1       1       6       6
       1       6       6       1       6       1       1       1       6       6
       6       6       6       1       6       6       6       1       6       6
       1       1       6       6       6       1       6       6       6       1
       6       1       1       1       6       6       1       6       6       1
       6       1       1       1       6       6       6       6       6       1
       6       6       6       1       6       6       1       1       6       6
       6       1       6       6       6       1       6       1       1       1
       6       6       1       6       6       1       6       1       1       1
       6       6       6       6       6       1       6       6       6       1
       6       6       1       1       6       6       6       1       6       6
       6       1       6       1       1       1       6       6       1       6
       6       1       6       1       1       1       6       6       6       6
       6       1       6       6       6       1       6       6       1       1
       6       6       6       1       6       6       6       1       6       1
       1       1       6       6       1       6       6       1       6       1
       1       1       6       6       6       6       6       1       6       6
       6       1       6       6       1       1       6       6       6       1
       6       6       6       1       6       1       1       1       6       6
       1       6       6       1       6       1       1       1       6       6
       6       6       6       1       6       6       6       1       6       6
       1       1       6       6       6       1       6       6       6       1
       6       1       1       1       6       6       1       6       6       1
       6       1       1       1       6       6       6       6       6       1
       6       6       6       1       6       6       1       1       6       6
       6       1       6       6       6       1       6       1       1       1
       6       6       1       6       6       1       6       1       1       1
       6       6       6       6       6       1       6       6       6       1
       6       6       1       1       6       6       6       1       6       6
       6       1       6       1       1       1       6       6       1       6
       6       1       6       1       1       1       6       6       6       6
       6       1       6       6       6       1       6       6       1       1
       6       6       6       1       6       6       6       1       6       1
       1       1       6       6       1       6       6       1       6       1
       1       1       6       6       6       6       6       1       6       6
       6       1       6       6       1       1       6       6       6       1
       6       6       6       1       6       1       1       1       6       6
       1       6       6       1       6       1       1       1       6       6
       6       6       6       1       6       6       6       1       6       6
       1       1       6       6       6       1       6       6       6       1
       6       1       1       1       6       6       1       6       6       1
       6       1       1       1       6       6       6       6       6       1
       6       6       6       1       6       6       1       1       6       6
       6       1       6       6       6       1       6       1       1       1
       6       6       1       6       6       1       6       1       1       1
       6       6       6       6       6       1       6       6       6       1
       6       6       1       1       6       6       6       1       6       6
       6       1       6       1       1       1       6       6       1       6
       6       1       6       1       1       1       6       6       6       6
       6       1       6       6       6       1       6       6       1       1
       6       6       6       1       6       6       6       1       6       1
       1       1       6       6       1       6       6       1       6       1
       1       1       6       6       6       6       6       1       6       6
       6       1       6       6       1       1       6       6       6       1
       6       6       6       1       6       1       1       1       6       6
       1       6       6       1       6       1       1       1       6       6
       6       6       6       1       6       6       6       1       6       6
       1       1       6       6       6       1       6       6       6       1
       6       1       1       1       6       6       1       6       6       1
       6       1       1       1       6       6       6       6       6       1
       6       6       6       1       6       6       1       1       6       6
       6       1       6       6       6       1       6       1       1       1
       6       6       1       6       6       1       6       1       1       1
       6       6       6       6       6       1       6       6       6       1
       6       6       1       1       6       6       6       1       6       6
       6       1       6       1       1       1       6       6       1       6
       6       1       6       1       1       1       6       6       6       6
       6       1       6       6       6       1       6       6       1       1
       6       6       6       1       6       6       6       1       6       1
       1       1       6       6       1       6       6       1       6       1
       1       1       6       6       6       6       6       1       6       6
       6       1       6       6       1       1       6       6       6       1
       6       6       6       1       6       1       1       1       6       6
       1       6       6       1       6       1       1       1       6       6
       6       6       6       1       6       6       6       1       6       6
       1       1       6       6       6       1       6       6       6       1
       6       1       1       1       6       6       1       6       6       1
       6       1       1       1       6       6       6       6       6       1
       6       6       6       1       6       6       1       1       6       6
       6       1       6       6       6       1       6       1       1       1
       6       6       1       6       6       1       6       1       1       1
       6       6       6       6       6       1       6       6       6       1
       6       6       1       1       6       6       6       1       6       6
       6       1       6       1       1       1       6       6       1       6
       6       1       6       1       1       1       6       6       6       6
       6       1       6       6       6       1       6       6       1       1
       6       6       6       1       6       6       6       1       6       1
       1       1       6       6       1       6       6       1       6       1
       1       1       6       6       6       6       6       1       6       6
       6       1       6       6       1       1       6       6       6       1
       6       6       6       1       6       1       1       1       6       6
       1       6       6       1       6       1       1       1       6       6
       6       6       6       1       6       6       6       1       6       6
       1       1       6       6       6       1       6       6       6       1
       6       1       1       1       6       6       1       6       6       1
       6       1       1       1       6       6       6       6       6       1
       6       6       6       1       6       6       1       1       6       6
       6       1       6       6       6       1       6       1       1       1
       6       6       1       6       6       1       6       1       1       1
       6       6       6       6       6       1       6       6       6       1
       6       6       1       1       6       6       6       1       6       6
       6       1       6       1       1       1       6       6       1       6
       6       1       6       1       1       1       6       6       6       6
       6       1       6       6       6       1       6       6       1       1
       6       6       6       1       6       6       6       1       6       1
       1       1       6       6       1       6       6       1       6       1
       1       1       6       6       6       6       6       1       6       6
       6       1       6       6       1       1       6       6       6       1
       6       6       6       1       6       1       1       1       6       6
       1       6       6       1       6       1       1       1       6       6
       6       6       6       1       6       6       6       1       6       6
       1       1       6       6       6       1       6       6       6       1
       6       1       1       1       6       6       1       6       6       1
       6       1       1       1       6       6       6       6       6       1
       6       6       6       1       6       6       1       1       6       6
       6       1       6       6       6       1       6       1       1       1
       6       6       1       6       6       1       6       1       1       1
       6       6       6       6       6       1       6       6       6       1
       6       6       1       1       6       6       6       1       6       6
       6       1       6       1       1       1       6       6       1       6
       6       1       6       1       1       1       6       6       6       6
       6       1       6       6       6       1       6       6       1       1
       6       6       6       1       6       6       6       1       6       1
       1       1       6       6       1       6       6       1       6       1
       1       1       6       6       6       6       6       1       6       6
       6       1       6       6       1       1       6       6       6       1
       6       6       6       1       6       1       1       1       6       6
       1       6       6       1       6       1       1       1       6       6
       6       6       6       1       6       6       6       1       6       6
       1       1       6       6       6       1       6       6       6       1
       6       1       1       1       6       6       1       6       6       1
       6       1       1       1       6       6       6       6       6       1
       6       6       6       1       6       6       1       1       6       6
       6       1       6       6       6       1       6       1       1       1
       6       6       1       6       6       1       6       1       1       1
       6       6       6       6       6       1       6       6       6       1
       6       6       1       1       6       6       6       1       6       6
       6       1       6       1       1       1       6       6       1       6
       6       1       6       1       1       1       6       6       6       6
       6       1       6       6       6       1       6       6       1       1
       6       6       6       1       6       6       6       1       6       1
       1       1       6       6       1       6       6       1       6       1
       1       1       6       6       6       6       6       1       6       6
       6       1       6       6       1       1       6       6       6       1
       6       6       6       1       6       1       1       1       6       6
       1       6       6       1       6       1       1       1       6       6
       6       6       6       1       6       6       6       1       6       6
       1       1       6       6       6       1       6       6       6       1
       6       1       1       1       6       6       1       6       6       1
       6       1       1       1       6       6       6       6       6       1
       6       6       6       1       6       6       1       1       6       6
       6       1       6       6       6       1       6       1       1       1
       6       6       1       6       6       1       6       1       1       1
       6       6       6       6       6       1       6       6       6       1
       6       6       1       1       6       6       6       1       6       6
       6       1       6       1       1       1       6       6       1       6
       6       1       6       1       1       1       6       6       6       6
       6       1       6       6       6       1       6       6       1       1
       6       6       6       1       6       6       6       1       6       1
       1       1       6       6       1       6       6       1       6       1
       1       1       6       6       6       6       6       1       6       6
       6       1       6       6       1       1       6       6       6       1
       6       6       6       1       6       1       1       1       6       6
       1       6       6       1       6       1       1       1       6       6
       6       6       6       1       6       6       6       1       6       6
       1       1       6       6       6       1       6       6       6       1
       6       1       1       1       6       6       1       6       6       1
       6       1       1       1       6       6       6       6       6       1
       6       6       6       1       6       6       1       1       6       6
       6       1       6       6       6       1       6       1       1       1
       6       6       1       6       6       1       6       1       1       1
       6       6       6       6       6       1       6       6       6       1
       6       6       1       1       6       6       6       1       6       6
       6       1       6       1       1       1       6       6       1       6
       6       1       6       1       1       1       6       6       6       6
       6       1       6       6       6       1       6       6       1       1
       6       6       6       1       6       6       6       1       6       1
       1       1       6       6       1       6       6       1       6       1
       1       1       6       6       6       6       6       1       6       6
       6       1       6       6       1       1       6       6       6       1
       6       6       6       1       6       1       1       1       6       6
       1       6       6       1       6       1       1       1       6       6
       6       6       6       1       6       6       6       1       6       6
       1       1       6       6       6       1       6       6       6       1
       6       1       1       1       6       6       1       6       6       1
       6       1       1       1       6       6       6       6       6       1
       6       6       6       1       6       6       1       1       6       6
       6       1       6       6       6       1       6       1       1       1
       6       6       1       6       6       1       6       1       1       1
       6       6       6       6       6       1       6       6       6       1
       6       6       1       1       6       6       6       1       6       6
       6       1       6       1       1       1       6       6       1       6
       6       1       6       1       1       1       6       6       6       6
       6       1       6       6       6       1       6       6       1       1
       6       6       6       1       6       6       6       1       6       1
       1       1       6       6       1       6       6       1       6       1
       1       1       6       6       6       6       6       1       6       6
       6       1       6       6       1       1       6       6       6       1
       6       6       6       1       6       1       1       1       6       6
       1       6       6       1       6       1       1       1       6       6
       6       6       6       1       6       6       6       1       6       6
       1       1       6       6       6       1       6       6       6       1
       6       1       1       1       6       6       1       6       6       1
       6       1       1       1       6       6       6       6       6       1
       6       6       6       1       6       6       1       1       6       6
       6       1       6       6       6       1       6       1       1       1
       6       6       1       6       6       1       6       1       1       1
       6       6       6       6       6       1       6       6       6       1
       6       6       1       1       6       6       6       1       6       6
       6       1       6       1       1       1       6       6       1       6
       6       1       6       1       1       1       6       6       6       6
       6       1       6       6       6       1       6       6       1       1
       6       6       6       1       6       6       6       1       6       1
       1       1       6       6       1       6       6       1       6       1
       1       1       6       6       6       6       6       1       6       6
       6       1       6       6       1       1       6       6       6       1
       6       6       6       1       6       1       1       1       6       6
       1       6       6       1       6       1       1       1       6       6
       6       6       6       1       6       6       6       1       6       6
       1       1       6       6       6       1       6       6       6       1
       6       1       1       1       6       6       1       6       6       1
       6       1       1       1       6       6       6       6       6       1
       6       6       6       1       6       6       1       1       6       6
       6       1       6       6       6       1       6       1       1       1
       6       6       1       6       6       1       6       1       1       1
       6       6       6       6       6       1       6       6       6       1
       6       6       1       1       6       6       6       1       6       6
       6       1       6       1       1       1       6       6       1       6
       6       1       6       1       1       1       6       6       6       6
       6       1       6       6       6       1       6       6       1       1
       6       6       6       1       6       6       6       1       6       1
       1       1       6       6       1       6       6       1       6       1
       1       1       6       6       6       6       6       1       6       6
       6       1       6       6       1       1       6       6       6       1
       6       6       6       1       6       1       1       1       6       6
       1       6       6       1       6       1       1       1       6       6
       6       6       6       1       6       6       6       1       6       6
       1       1       6       6       6       1       6       6       6       1
       6       1       1       1       6       6       1       6       6       1
       6       1       1       1       6       6       6       6       6       1
       6       6       6       1       6       6       1       1       6       6
       6       1       6       6       6       1       6       1       1       1
       6       6       1       6       6       1       6       1       1       1
       6       6       6       6       6       1       6       6       6       1
       6       6       1       1       6       6       6       1       6       6
       6       1       6       1       1       1       6       6       1       6
       6       1       6       1       1       1       6       6       6       6
       6       1       6       6       6       1       6       6       1       1
       6       6       6       1       6       6       6       1       6       1
       1       1       6       6       1       6       6       1       6       1
       1       1       6       6       6       6       6       1       6       6
       6       1       6       6       1       1       6       6       6       1
       6       6       6       1       6       1       1       1       6       6
       1       6       6       1       6       1       1       1       6       6
       6       6       6       1       6       6       6       1       6       6
       1       1       6       6       6       1       6       6       6       1
       6       1       1       1       6       6       1       6       6       1
       6       1       1       1       6       6       6       6       6       1
       6       6       6       1       6       6       1       1       6       6
       6       1       6       6       6       1       6       1       1       1
       6       6       1       6       6       1       6       1       1       1
       6       6       6       6       6       1       6       6       6       1
       6       6       1       1       6       6       6       1       6       6
       6       1       6       1       1       1       6       6       1       6
       6       1       6       1       1       1       6       6       6       6
       6       1       6       6       6       1       6       6       1       1
       6       6       6       1       6       6       6       1       6       1
       1       1       6       6       1       6       6       1       6       1
       1       1       6       6       6       6       6       1       6       6
       6       1       6       6       1       1       6       6       6       1
       6       6       6       1       6       1       1       1       6       6
       1       6       6       1       6       1       1       1       6       6
       6       6       6       1       6       6       6       1       6       6
       1       1       6       6       6       1       6       6       6       1
       6       1       1       1       6       6       1       6       6       1
       6       1       1       1       6       6       6       6       6       1
       6       6       6       1       6       6       1       1       6       6
       6       1       6       6       6       1       6       1       1       1
       6       6       1       6       6       1       6       1       1       1
       6       6       6       6       6       1       6       6       6       1
       6       6       1       1       6       6       6       1       6       6
       6       1       6       1       1       1       6       6       1       6
       6       1       6       1       1       1       6       6       6       6
       6       1       6       6       6       1       6       6       1       1
       6       6       6       1       6       6       6       1       6       1
       1       1       6       6       1       6       6       1       6       1
       1       1       6       6       6       6       6       1       6       6
       6       1       6       6       1       1       6       6       6       1
       6       6       6       1       6       1       1       1       6       6
       1       6       6       1       6       1       1       1       6       6
       6       6       6       1       6       6       6       1       6       6
       1       1       6       6       6       1       6       6       6       1
       6       1       1       1       6       6       1       6       6       1
       6       1       1       1       6       6       6       6       6       1
       6       6       6       1       6       6       1       1       6       6
       6       1       6       6       6       1       6       1       1       1
       6       6       1       6       6       1       6       1       1       1
       6       6       6       6       6       1       6       6       6       1
       6       6       1       1       6       6       6       1       6       6
       6       1       6       1       1       1       6       6       1       6
       6       1       6       1       1       1       6       6       6       6
       6       1       6       6       6       1       6       6       1       1
       6       6       6       1       6       6       6       1       6       1
       1       1       6       6       1       6       6       1       6       1
       1       1       6       6       6       6       6       1       6       6
       6       1       6       6       1       1       6       6       6       1
       6       6       6       1       6       1       1       1       6       6
       1       6       6       1       6       1       1       1       6       6
       6       6       6       1       6       6       6       1       6       6
       1       1       6       6       6       1       6       6       6       1
       6       1       1       1       6       6       1       6       6       1
       6       1       1       1       6       6       6       6       6       1
       6       6       6       1       6       6       1       1       6       6
       6       1       6       6       6       1       6       1       1       1
       6       6       1       6       6       1       6       1       1       1
       6       6       6       6       6       1       6       6       6       1
       6       6       1       1       6       6       6       1       6       6
       6       1       6       1       1       1       6       6       1       6
       6       1       6       1       1       1       6       6       6       6
       6       1       6       6       6       1       6       6       1       1
       6       6       6       1       6       6       6       1       6       1
       1       1       6       6       1       6       6       1       6       1
       1       1       6       6       6       6       6       1       6       6
       6       1       6       6       1       1       6       6       6       1
       6       6       6       1       6       1       1       1       6       6
       1       6       6       1       6       1       1       1       6       6
       6       6       6       1       6       6       6       1       6       6
       1       1       6       6       6       1       6       6       6       1
       6       1       1       1       6       6       1       6       6       1
       6       1       1       1       6       6       6       6       6       1
       6       6       6       1       6       6       1       1       6       6
       6       1       6       6       6       1       6       1       1       1
       6       6       1       6       6       1       6       1       1       1
       6       6       6       6       6       1       6       6       6       1
       6       6       1       1       6       6       6       1       6       6
       6       1       6       1       1       1       6       6       1       6
       6       1       6       1       1       1       6       6       6       6
       6       1       6       6       6       1       6       6       1       1
       6       6       6       1       6       6       6       1       6       1
       1       1       6       6       1       6       6       1       6       1
       1       1       6       6       6       6       6       1       6       6
       6       1       6       6       1       1       6       6       6       1
       6       6       6       1       6       1       1       1       6       6
       1       6       6       1       6       1       1       1       6       6
       6       6       6       1       6       6       6       1       6       6
       1       1       6       6       6       1       6       6       6       1
       6       1       1       1       6       6       1       6       6       1
       6       1       1       1       6       6       6       6       6       1
       6       6       6       1       6       6       1       1       6       6
       6       1       6       6       6       1       6       1       1       1
       6       6       1       6       6       1       6       1       1       1
       6       6       6       6       6       1       6       6       6       1
       6       6       1       1       6       6       6       1       6       6
       6       1       6       1       1       1       6       6       1       6
       6       1       6       1       1       1       6       6       6       6
       6       1       6       6       6       1       6       6       1       1
       6       6       6       1       6       6       6       1       6       1
       1       1       6       6       1       6       6       1       6       1
       1       1       6       6       6       6       6       1       6       6
       6       1       6       6       1       1       6       6       6       1
       6       6       6       1       6       1       1       1       6       6
       1       6       6       1       6       1       1       1       6       6
       6       6       6       1       6       6       6       1       6       6
       1       1       6       6       6       1       6       6       6       1
       6       1       1       1       6       6       1       6       6       1
       6       1       1       1       6       6       6       6       6       1
       6       6       6       1       6       6       1       1       6       6
       6       1       6       6       6       1       6       1       1       1
       6       6       1       6       6       1       6       1       1       1
       6       6       6       6       6       1       6       6       6       1
       6       6       1       1       6       6       6       1       6       6
       6       1       6       1       1       1       6       6       1       6
       6       1       6       1       1       1       6       6       6       6
       6       1       6       6       6       1       6       6       1       1
       6       6       6       1       6       6       6       1       6       1
       1       1       6       6       1       6       6       1       6       1
       1       1       6       6       6       6       6       1       6       6
       6       1       6       6       1       1       6       6       6       1
       6       6       6       1       6       1       1       1       6       6
       1       6       6       1       6       1       1       1       6       6
       6       6       6       1       6       6       6       1       6       6
       1       1       6       6       6       1       6       6       6       1
       6       1       1       1       6       6       1       6       6       1
       6       1       1       1       6       6       6       6       6       1
       6       6       6       1       6       6       1       1       6       6
       6       1       6       6       6       1       6       1       1       1
       6       6       1       6       6       1       6       1       1       1
       6       6       6       6       6       1       6       6       6       1
       6       6       1       1       6       6       6       1       6       6
       6       1       6       1       1       1       6       6       1       6
       6       1       6       1       1       1       6       6       6       6
       6       1       6       6       6       1       6       6       1       1
       6       6       6       1       6       6       6       1       6       1
       1       1       6       6       1       6       6       1       6       1
       1       1       6       6       6       6       6       1       6       6
       6       1       6       6       1       1       6       6       6       1
       6       6       6       1       6       1       1       1       6       6
       1       6       6       1       6       1       1       1       6       6
       6       6       6       1       6       6       6       1       6       6
       1       1       6       6       6       1       6       6       6       1
       6       1       1       1       6       6       1       6       6       1
       6       1       1       1       6       6       6       6       6       1
       6       6       6       1       6       6       1       1       6       6
       6       1       6       6       6       1       6       1       1       1
       6       6       1       6       6       1       6       1       1       1
       6       6       6       6       6       1       6       6       6       1
       6       6       1       1       6       6       6       1       6       6
       6       1       6       1       1       1       6       6       1       6
       6       1       6       1       1       1       6       6       6       6
       6       1       6       6       6       1       6       6       1       1
       6       6       6       1       6       6       6       1       6       1
       1       1       6       6       1       6       6       1       6       1
       1       1       6       6       6       6       6       1       6       6
       6       1       6       6       1       1       6       6       6       1
       6       6       6       1       6       1       1       1       6       6
       1       6       6       1       6       1       1       1       6       6
       6       6       6       1       6       6       6       1       6       6
       1       1       6       6       6       1       6       6       6       1
       6       1       1       1       6       6       1       6       6       1
       6       1       1       1       6       6       6       6       6       1
       6       6       6       1       6       6       1       1       6       6
       6       1       6       6       6       1       6       1       1       1
       6       6       1       6       6       1       6       1       1       1
       6       6       6       6       6       1       6       6       6       1
       6       6       1       1       6       6       6       1       6       6
       6       1       6       1       1       1       6       6       1       6
       6       1       6       1       1       1       6       6       6       6
       6       1       6       6       6       1       6       6       1       1
       6       6       6       1       6       6       6       1       6       1
       1       1       6       6       1       6       6       1       6       1
       1       1       6       6       6       6       6       1       6       6
       6       1       6       6       1       1       6       6       6       1
       6       6       6       1       6       1       1       1       6       6
       1       6       6       1       6       1       1       1       6       6
       6       6       6       1       6       6       6       1       6       6
       1       1       6       6       6       1       6       6       6       1
       6       1       1       1       6       6       1       6       6       1
       6       1       1       1       6       6       6       6       6       1
       6       6       6       1       6       6       1       1       6       6
       6       1       6       6       6       1       6       1       1       1
       6       6       1       6       6       1       6       1       1       1
       6       6       6       6       6       1       6       6       6       1
       6       6       1       1       6       6       6       1       6       6
       6       1       6       1       1       1       6       6       1       6
       6       1       6       1       1       1       6       6       6       6
       6       1       6       6       6       1       6       6       1       1
       6       6       6       1       6       6       6       1       6       1
       1       1       6       6       1       6       6       1       6       1
       1       1       6       6       6       6       6       1       6       6
       6       1       6       6       1       1       6       6       6       1
       6       6       6       1       6       1       1       1       6       6
       1       6       6       1       6       1       1       1       6       6
       6       6       6       1       6       6       6       1       6       6
       1       1       6       6       6       1       6       6       6       1
       6       1       1       1       6       6       1       6       6       1
       6       1       1       1       6       6       6       6       6       1
       6       6       6       1       6       6       1       1       6       6
       6       1       6       6       6       1       6       1       1       1
       6       6       1       6       6       1       6       1       1       1
       6       6       6       6       6       1       6       6       6       1
       6       6       1       1       6       6       6       1       6       6
       6       1       6       1       1       1       6       6       1       6
       6       1       6       1       1       1       6       6       6       6
       6       1       6       6       6       1       6       6       1       1
       6       6       6       1       6       6       6       1       6       1
       1       1       6       6       1       6       6       1       6       1
       1       1       6       6       6       6       6       1       6       6
       6       1       6       6       1       1       6       6       6       1
       6       6       6       1       6       1       1       1       6       6
       1       6       6       1       6       1       1       1       6       6
       6       6       6       1       6       6       6       1       6       6
       1       1       6       6       6       1       6       6       6       1
       6       1       1       1       6       6       1       6       6       1
       6       1       1       1       6       6       6       6       6       1
       6       6       6       1       6       6       1       1       6       6
       6       1       6       6       6       1       6       1       1       1
       6       6       1       6       6       1       6       1       1       1
       6       6       6       6       6       1       6       6       6       1
       6       6       1       1       6       6       6       1       6       6
       6       1       6       1       1       1       6       6       1       6
       6       1       6       1       1       1       6       6       6       6
       6       1       6       6       6       1       6       6       1       1
       6       6       6       1       6       6       6       1       6       1
       1       1       6       6       1       6       6       1       6       1
       1       1       6       6       6       6       6       1       6       6
       6       1       6       6       1       1       6       6       6       1
       6       6       6       1       6       1       1       1       6       6
       1       6       6       1       6       1       1       1       6       6
       6       6       6       1       6       6       6       1       6       6
       1       1       6       6       6       1       6       6       6       1
       6       1       1       1       6       6       1       6       6       1
       6       1       1       1       6       6       6       6       6       1
       6       6       6       1       6       6       1       1       6       6
       6       1       6       6       6       1       6       1       1       1
       6       6       1       6       6       1       6       1       1       1
%FLAG MASS                                                                      
%FORMAT(5E16.8)                                                                 
  1.20100000E+01  1.20100000E+01  1.20100000E+01  1.20100000E+01  1.20100000E+01
  1.00800000E+00  1.20100000E+01  1.20100000E+01  1.20100000E+01  1.00800000E+00
  1.20100000E+01  1.20100000E+01  1.00800000E+00  1.00800000E+00  1.20100000E+01
  1.20100000E+01  1.20100000E+01  1.00800000E+00  1.20100000E+01  1.20100000E+01
  1.20100000E+01  1.00800000E+00  1.20100000E+01  1.00800000E+00  1.00800000E+00
  1.00800000E+00  1.20100000E+01  1.20100000E+01  1.00800000E+00  1.20100000E+01
  1.20100000E+01  1.00800000E+00  1.20100000E+01  1.00800000E+00  1.00800000E+00
  1.00800000E+00  1.20100000E+01  1.20100000E+01  1.20100000E+01  1.20100000E+01
  1.20100000E+01  1.00800000E+00  1.20100000E+01  1.20100000E+01  1.20100000E+01
  1.00800000E+00  1.20100000E+01  1.20100000E+01  1.00800000E+00  1.00800000E+00
  1.20100000E+01  1.20100000E+01  1.20100000E+01  1.00800000E+00  1.20100000E+01
  1.20100000E+01  1.20100000E+01  1.00800000E+00  1.20100000E+01  1.00800000E+00
  1.00800000E+00  1.00800000E+00  1.20100000E+01  1.20100000E+01  1.00800000E+00
  1.20100000E+01  1.20100000E+01  1.00800000E+00  1.20100000E+01  1.00800000E+00
  1.00800000E+00  1.00800000E+00  1.20100000E+01  1.20100000E+01  1.20100000E+01
  1.20100000E+01  1.20100000E+01  1.00800000E+00  1.20100000E+01  1.20100000E+01
  1.20100000E+01  1.00800000E+00  1.20100000E+01  1.20100000E+01  1.00800000E+00
  1.00800000E+00  1.20100000E+01  1.20100000E+01  1.20100000E+01  1.00800000E+00
  1.20100000E+01  1.20100000E+01  1.20100000E+01  1.00800000E+00  1.20100000E+01
  1.00800000E+00  1.00800000E+00  1.00800000E+00  1.20100000E+01  1.20100000E+01
  1.00800000E+00  1.20100000E+01  1.20100000E+01  1.00800000E+00  1.20100000E+01
  1.00800000E+00  1.00800000E+00  1.00800000E+00  1.20100000E+01  1.20100000E+01
  1.20100000E+01  1.20100000E+01  1.20100000E+01  1.00800000E+00  1.20100000E+01
  1.20100000E+01  1.20100000E+01  1.00800000E+00  1.20100000E+01  1.20100000E+01
  1.00800000E+00  1.00800000E+00  1.20100000E+01  1.20100000E+01  1.20100000E+01
  1.00800000E+00  1.20100000E+01  1.20100000E+01  1.20100000E+01  1.00800000E+00
  1.20100000E+01  1.00800000E+00  1.00800000E+00  1.00800000E+00  1.20100000E+01
  1.20100000E+01  1.00800000E+00  1.20100000E+01  1.20100000E+01  1.00800000E+00
  1.20100000E+01  1.00800000E+00  1.00800000E+00  1.00800000E+00  1.20100000E+01
  1.20100000E+01  1.20100000E+01  1.20100000E+01  1.20100000E+01  1.00800000E+00
  1.20100000E+01  1.20100000E+01  1.20100000E+01  1.00800000E+00  1.20100000E+01
  1.20100000E+01  1.00800000E+00  1.00800000E+00  1.20100000E+01  1.20100000E+01
  1.20100000E+01  1.00800000E+00  1.20100000E+01  1.20100000E+01  1.20100000E+01
  1.00800000E+00  1.20100000E+01  1.00800000E+00  1.00800000E+00  1.00800000E+00
  1.20100000E+01  1.20100000E+01  1.00800000E+00  1.20100000E+01  1.20100000E+01
  1.00800000E+00  1.20100000E+01  1.00800000E+00  1.00800000E+00  1.00800000E+00
  1.20100000E+01  1.20100000E+01  1.20100000E+01  1.20100000E+01  1.20100000E+01
  1.00800000E+00  1.20100000E+01  1.20100000E+01  1.20100000E+01  1.00800000E+00
  1.20100000E+01  1.20100000E+01  1.00800000E+00  1.00800000E+00  1.20100000E+01
  1.20100000E+01  1.20100000E+01  1.00800000E+00  1.20100000E+01  1.20100000E+01
  1.20100000E+01  1.00800000E+00  1.20100000E+01  1.00800000E+00  1.00800000E+00
  1.00800000E+00  1.20100000E+01  1.20100000E+01  1.00800000E+00  1.20100000E+01
  1.20100000E+01  1.00800000E+00  1.20100000E+01  1.00800000E+00  1.00800000E+00
  1.00800000E+00  1.20100000E+01  1.20100000E+01  1.20100000E+01  1.20100000E+01
  1.20100000E+01  1.00800000E+00  1.20100000E+01  1.20100000E+01  1.20100000E+01
  1.00800000E+00  1.20100000E+01  1.20100000E+01  1.00800000E+00  1.00800000E+00
  1.20100000E+01  1.20100000E+01  1.20100000E+01  1.00800000E+00  1.20100000E+01
  1.20100000E+01  1.20100000E+01  1.00800000E+00  1.20100000E+01  1.00800000E+00
  1.00800000E+00  1.00800000E+00  1.20100000E+01  1.20100000E+01  1.00800000E+00
  1.20100000E+01  1.20100000E+01  1.00800000E+00  1.20100000E+01  1.00800000E+00
  1.00800000E+00  1.00800000E+00  1.20100000E+01  1.20100000E+01  1.20100000E+01
  1.20100000E+01  1.20100000E+01  1.00800000E+00  1.20100000E+01  1.20100000E+01
  1.20100000E+01  1.00800000E+00  1.20100000E+01  1.20100000E+01  1.00800000E+00
  1.00800000E+00  1.20100000E+01  1.20100000E+01  1.20100000E+01  1.00800000E+00
  1.20100000E+01  1.20100000E+01  1.20100000E+01  1.00800000E+00  1.20100000E+01
  1.00800000E+00  1.00800000E+00  1.00800000E+00  1.20100000E+01  1.20100000E+01
  1.00800000E+00  1.20100000E+01  1.20100000E+01  1.00800000E+00  1.20100000E+01
  1.00800000E+00  1.00800000E+00  1.00800000E+00  1.20100000E+01  1.20100000E+01
  1.20100000E+01  1.20100000E+01  1.20100000E+01  1.00800000E+00  1.20100000E+01
  1.20100000E+01  1.20100000E+01  1.00800000E+00  1.20100000E+01  1.20100000E+01
  1.00800000E+00  1.00800000E+00  1.20100000E+01  1.20100000E+01  1.20100000E+01
  1.00800000E+00  1.20100000E+01  1.20100000E+01  1.20100000E+01  1.00800000E+00
  1.20100000E+01  1.00800000E+00  1.00800000E+00  1.00800000E+00  1.20100000E+01
  1.20100000E+01  1.00800000E+00  1.20100000E+01  1.20100000E+01  1.00800000E+00
  1.20100000E+01  1.00800000E+00  1.00800000E+00  1.00800000E+00  1.20100000E+01
  1.20100000E+01  1.20100000E+01  1.20100000E+01  1.20100000E+01  1.00800000E+00
  1.20100000E+01  1.20100000E+01  1.20100000E+01  1.00800000E+00  1.20100000E+01
  1.20100000E+01  1.00800000E+00  1.00800000E+00  1.20100000E+01  1.20100000E+01
  1.20100000E+01  1.00800000E+00  1.20100000E+01  1.20100000E+01  1.20100000E+01
  1.00800000E+00  1.20100000E+01  1.00800000E+00  1.00800000E+00  1.00800000E+00
  1.20100000E+01  1.20100000E+01  1.00800000E+00  1.20100000E+01  1.20100000E+01
  1.00800000E+00  1.20100000E+01  1.00800000E+00  1.00800000E+00  1.00800000E+00
  1.20100000E+01  1.20100000E+01  1.20100000E+01  1.20100000E+01  1.20100000E+01
  1.00800000E+00  1.20100000E+01  1.20100000E+01  1.20100000E+01  1.00800000E+00
  1.20100000E+01  1.20100000E+01  1.00800000E+00  1.00800000E+00  1.20100000E+01
  1.20100000E+01  1.20100000E+01  1.00800000E+00  1.20100000E+01  1.20100000E+01
  1.20100000E+01  1.00800000E+00  1.20100000E+01  1.00800000E+00  1.00800000E+00
  1.00800000E+00  1.20100000E+01  1.20100000E+01  1.00800000E+00  1.20100000E+01
  1.20100000E+01  1.00800000E+00  1.20100000E+01  1.00800000E+00  1.00800000E+00
  1.00800000E+00  1.20100000E+01  1.20100000E+01  1.20100000E+01  1.20100000E+01
  1.20100000E+01  1.00800000E+00  1.20100000E+01  1.20100000E+01  1.20100000E+01
  1.00800000E+00  1.20100000E+01  1.20100000E+01  1.00800000E+00  1.00800000E+00
  1.20100000E+01  1.20100000E+01  1.20100000E+01  1.00800000E+00  1.20100000E+01
  1.20100000E+01  1.20100000E+01  1.00800000E+00  1.20100000E+01  1.00800000E+00
  1.00800000E+00  1.00800000E+00  1.20100000E+01  1.20100000E+01  1.00800000E+00
  1.20100000E+01  1.20100000E+01  1.00800000E+00  1.20100000E+01  1.00800000E+00
  1.00800000E+00  1.00800000E+00  1.20100000E+01  1.20100000E+01  1.20100000E+01
  1.20100000E+01  1.20100000E+01  1.00800000E+00  1.20100000E+01  1.20100000E+01
  1.20100000E+01  1.00800000E+00  1.20100000E+01  1.20100000E+01  1.00800000E+00
  1.00800000E+00  1.20100000E+01  1.20100000E+01  1.20100000E+01  1.00800000E+00
  1.20100000E+01  1.20100000E+01  1.20100000E+01  1.00800000E+00  1.20100000E+01
  1.00800000E+00  1.00800000E+00  1.00800000E+00  1.20100000E+01  1.20100000E+01
  1.00800000E+00  1.20100000E+01  1.20100000E+01  1.00800000E+00  1.20100000E+01
  1.00800000E+00  1.00800000E+00  1.00800000E+00  1.20100000E+01  1.20100000E+01
  1.20100000E+01  1.20100000E+01  1.20100000E+01  1.00800000E+00  1.20100000E+01
  1.20100000E+01  1.20100000E+01  1.00800000E+00  1.20100000E+01  1.20100000E+01
  1.00800000E+00  1.00800000E+00  1.20100000E+01  1.20100000E+01  1.20100000E+01
  1.00800000E+00  1.20100000E+01  1.20100000E+01  1.20100000E+01  1.00800000E+00
  1.20100000E+01  1.00800000E+00  1.00800000E+00  1.00800000E+00  1.20100000E+01
  1.20100000E+01  1.00800000E+00  1.20100000E+01  1.20100000E+01  1.00800000E+00
  1.20100000E+01  1.00800000E+00  1.00800000E+00  1.00800000E+00  1.20100000E+01
  1.20100000E+01  1.20100000E+01  1.20100000E+01  1.20100000E+01  1.00800000E+00
  1.20100000E+01  1.20100000E+01  1.20100000E+01  1.00800000E+00  1.20100000E+01
  1.20100000E+01  1.00800000E+00  1.00800000E+00  1.20100000E+01  1.20100000E+01
  1.20100000E+01  1.00800000E+00  1.20100000E+01  1.20100000E+01  1.20100000E+01
  1.00800000E+00  1.20100000E+01  1.00800000E+00  1.00800000E+00  1.00800000E+00
  1.20100000E+01  1.20100000E+01  1.00800000E+00  1.20100000E+01  1.20100000E+01
  1.00800000E+00  1.20100000E+01  1.00800000E+00  1.00800000E+00  1.00800000E+00
  1.20100000E+01  1.20100000E+01  1.20100000E+01  1.20100000E+01  1.20100000E+01
  1.00800000E+00  1.20100000E+01  1.20100000E+01  1.20100000E+01  1.00800000E+00
  1.20100000E+01  1.20100000E+01  1.00800000E+00  1.00800000E+00  1.20100000E+01
  1.20100000E+01  1.20100000E+01  1.00800000E+00  1.20100000E+01  1.20100000E+01
  1.20100000E+01  1.00800000E+00  1.20100000E+01  1.00800000E+00  1.00800000E+00
  1.00800000E+00  1.20100000E+01  1.20100000E+01  1.00800000E+00  1.20100000E+01
  1.20100000E+01  1.00800000E+00  1.20100000E+01  1.00800000E+00  1.00800000E+00
  1.00800000E+00  1.20100000E+01  1.20100000E+01  1.20100000E+01  1.20100000E+01
  1.20100000E+01  1.00800000E+00  1.20100000E+01  1.20100000E+01  1.20100000E+01
  1.00800000E+00  1.20100000E+01  1.20100000E+01  1.00800000E+00  1.00800000E+00
  1.20100000E+01  1.20100000E+01  1.20100000E+01  1.00800000E+00  1.20100000E+01
  1.20100000E+01  1.20100000E+01  1.00800000E+00  1.20100000E+01  1.00800000E+00
  1.00800000E+00  1.00800000E+00  1.20100000E+01  1.20100000E+01  1.00800000E+00
  1.20100000E+01  1.20100000E+01  1.00800000E+00  1.20100000E+01  1.00800000E+00
  1.00800000E+00  1.00800000E+00  1.20100000E+01  1.20100000E+01  1.20100000E+01
  1.20100000E+01  1.20100000E+01  1.00800000E+00  1.20100000E+01  1.20100000E+01
  1.20100000E+01  1.00800000E+00  1.20100000E+01  1.20100000E+01  1.00800000E+00
  1.00800000E+00  1.20100000E+01  1.20100000E+01  1.20100000E+01  1.00800000E+00
  1.20100000E+01  1.20100000E+01  1.20100000E+01  1.00800000E+00  1.20100000E+01
  1.00800000E+00  1.00800000E+00  1.00800000E+00  1.20100000E+01  1.20100000E+01
  1.00800000E+00  1.20100000E+01  1.20100000E+01  1.00800000E+00  1.20100000E+01
  1.00800000E+00  1.00800000E+00  1.00800000E+00  1.20100000E+01  1.20100000E+01
  1.20100000E+01  1.20100000E+01  1.20100000E+01  1.00800000E+00  1.20100000E+01
  1.20100000E+01  1.20100000E+01  1.00800000E+00  1.20100000E+01  1.20100000E+01
  1.00800000E+00  1.00800000E+00  1.20100000E+01  1.20100000E+01  1.20100000E+01
  1.00800000E+00  1.20100000E+01  1.20100000E+01  1.20100000E+01  1.00800000E+00
  1.20100000E+01  1.00800000E+00  1.00800000E+00  1.00800000E+00  1.20100000E+01
  1.20100000E+01  1.00800000E+00  1.20100000E+01  1.20100000E+01  1.00800000E+00
  1.20100000E+01  1.00800000E+00  1.00800000E+00  1.00800000E+00  1.20100000E+01
  1.20100000E+01  1.20100000E+01  1.20100000E+01  1.20100000E+01  1.00800000E+00
  1.20100000E+01  1.20100000E+01  1.20100000E+01  1.00800000E+00  1.20100000E+01
  1.20100000E+01  1.00800000E+00  1.00800000E+00  1.20100000E+01  1.20100000E+01
  1.20100000E+01  1.00800000E+00  1.20100000E+01  1.20100000E+01  1.20100000E+01
  1.00800000E+00  1.20100000E+01  1.00800000E+00  1.00800000E+00  1.00800000E+00
  1.20100000E+01  1.20100000E+01  1.00800000E+00  1.20100000E+01  1.20100000E+01
  1.00800000E+00  1.20100000E+01  1.00800000E+00  1.00800000E+00  1.00800000E+00
  1.20100000E+01  1.20100000E+01  1.20100000E+01  1.20100000E+01  1.20100000E+01
  1.00800000E+00  1.20100000E+01  1.20100000E+01  1.20100000E+01  1.00800000E+00
  1.20100000E+01  1.20100000E+01  1.00800000E+00  1.00800000E+00  1.20100000E+01
  1.20100000E+01  1.20100000E+01  1.00800000E+00  1.20100000E+01  1.20100000E+01
  1.20100000E+01  1.00800000E+00  1.20100000E+01  1.00800000E+00  1.00800000E+00
  1.00800000E+00  1.20100000E+01  1.20100000E+01  1.00800000E+00  1.20100000E+01
  1.20100000E+01  1.00800000E+00  1.20100000E+01  1.00800000E+00  1.00800000E+00
  1.00800000E+00  1.20100000E+01  1.20100000E+01  1.20100000E+01  1.20100000E+01
  1.20100000E+01  1.00800000E+00  1.20100000E+01  1.20100000E+01  1.20100000E+01
  1.00800000E+00  1.20100000E+01  1.20100000E+01  1.00800000E+00  1.00800000E+00
  1.20100000E+01  1.20100000E+01  1.20100000E+01  1.00800000E+00  1.20100000E+01
  1.20100000E+01  1.20100000E+01  1.00800000E+00  1.20100000E+01  1.00800000E+00
  1.00800000E+00  1.00800000E+00  1.20100000E+01  1.20100000E+01  1.00800000E+00
  1.20100000E+01  1.20100000E+01  1.00800000E+00  1.20100000E+01  1.00800000E+00
  1.00800000E+00  1.00800000E+00  1.20100000E+01  1.20100000E+01  1.20100000E+01
  1.20100000E+01  1.20100000E+01  1.00800000E+00  1.20100000E+01  1.20100000E+01
  1.20100000E+01  1.00800000E+00  1.20100000E+01  1.20100000E+01  1.00800000E+00
  1.00800000E+00  1.20100000E+01  1.20100000E+01  1.20100000E+01  1.00800000E+00
  1.20100000E+01  1.20100000E+01  1.20100000E+01  1.00800000E+00  1.20100000E+01
  1.00800000E+00  1.00800000E+00  1.00800000E+00  1.20100000E+01  1.20100000E+01
  1.00800000E+00  1.20100000E+01  1.20100000E+01  1.00800000E+00  1.20100000E+01
  1.00800000E+00  1.00800000E+00  1.00800000E+00  1.20100000E+01  1.20100000E+01
  1.20100000E+01  1.20100000E+01  1.20100000E+01  1.00800000E+00  1.20100000E+01
  1.20100000E+01  1.20100000E+01  1.00800000E+00  1.20100000E+01  1.20100000E+01
  1.00800000E+00  1.00800000E+00  1.20100000E+01  1.20100000E+01  1.20100000E+01
  1.00800000E+00  1.20100000E+01  1.20100000E+01  1.20100000E+01  1.00800000E+00
  1.20100000E+01  1.00800000E+00  1.00800000E+00  1.00800000E+00  1.20100000E+01
  1.20100000E+01  1.00800000E+00  1.20100000E+01  1.20100000E+01  1.00800000E+00
  1.20100000E+01  1.00800000E+00  1.00800000E+00  1.00800000E+00  1.20100000E+01
  1.20100000E+01  1.20100000E+01  1.20100000E+01  1.20100000E+01  1.00800000E+00
  1.20100000E+01  1.20100000E+01  1.20100000E+01  1.00800000E+00  1.20100000E+01
  1.20100000E+01  1.00800000E+00  1.00800000E+00  1.20100000E+01  1.20100000E+01
  1.20100000E+01  1.00800000E+00  1.20100000E+01  1.20100000E+01  1.20100000E+01
  1.00800000E+00  1.20100000E+01  1.00800000E+00  1.00800000E+00  1.00800000E+00
  1.20100000E+01  1.20100000E+01  1.00800000E+00  1.20100000E+01  1.20100000E+01
  1.00800000E+00  1.20100000E+01  1.00800000E+00  1.00800000E+00  1.00800000E+00
  1.20100000E+01  1.20100000E+01  1.20100000E+01  1.20100000E+01  1.20100000E+01
  1.00800000E+00  1.20100000E+01  1.20100000E+01  1.20100000E+01  1.00800000E+00
  1.20100000E+01  1.20100000E+01  1.00800000E+00  1.00800000E+00  1.20100000E+01
  1.20100000E+01  1.20100000E+01  1.00800000E+00  1.20100000E+01  1.20100000E+01
  1.20100000E+01  1.00800000E+00  1.20100000E+01  1.00800000E+00  1.00800000E+00
  1.00800000E+00  1.20100000E+01  1.20100000E+01  1.00800000E+00  1.20100000E+01
  1.20100000E+01  1.00800000E+00  1.20100000E+01  1.00800000E+00  1.00800000E+00
  1.00800000E+00  1.20100000E+01  1.20100000E+01  1.20100000E+01  1.20100000E+01
  1.20100000E+01  1.00800000E+00  1.20100000E+01  1.20100000E+01  1.20100000E+01
  1.00800000E+00  1.20100000E+01  1.20100000E+01  1.00800000E+00  1.00800000E+00
  1.20100000E+01  1.20100000E+01  1.20100000E+01  1.00800000E+00  1.20100000E+01
  1.20100000E+01  1.20100000E+01  1.00800000E+00  1.20100000E+01  1.00800000E+00
  1.00800000E+00  1.00800000E+00  1.20100000E+01  1.20100000E+01  1.00800000E+00
  1.20100000E+01  1.20100000E+01  1.00800000E+00  1.20100000E+01  1.00800000E+00
  1.00800000E+00  1.00800000E+00  1.20100000E+01  1.20100000E+01  1.20100000E+01
  1.20100000E+01  1.20100000E+01  1.00800000E+00  1.20100000E+01  1.20100000E+01
  1.20100000E+01  1.00800000E+00  1.20100000E+01  1.20100000E+01  1.00800000E+00
  1.00800000E+00  1.20100000E+01  1.20100000E+01  1.20100000E+01  1.00800000E+00
  1.20100000E+01  1.20100000E+01  1.20100000E+01  1.00800000E+00  1.20100000E+01
  1.00800000E+00  1.00800000E+00  1.00800000E+00  1.20100000E+01  1.20100000E+01
  1.00800000E+00  1.20100000E+01  1.20100000E+01  1.00800000E+00  1.20100000E+01
  1.00800000E+00  1.00800000E+00  1.00800000E+00  1.20100000E+01  1.20100000E+01
  1.20100000E+01  1.20100000E+01  1.20100000E+01  1.00800000E+00  1.20100000E+01
  1.20100000E+01  1.20100000E+01  1.00800000E+00  1.20100000E+01  1.20100000E+01
  1.00800000E+00  1.00800000E+00  1.20100000E+01  1.20100000E+01  1.20100000E+01
  1.00800000E+00  1.20100000E+01  1.20100000E+01  1.20100000E+01  1.00800000E+00
  1.20100000E+01  1.00800000E+00  1.00800000E+00  1.00800000E+00  1.20100000E+01
  1.20100000E+01  1.00800000E+00  1.20100000E+01  1.20100000E+01  1.00800000E+00
  1.20100000E+01  1.00800000E+00  1.00800000E+00  1.00800000E+00  1.20100000E+01
  1.20100000E+01  1.20100000E+01  1.20100000E+01  1.20100000E+01  1.00800000E+00
  1.20100000E+01  1.20100000E+01  1.20100000E+01  1.00800000E+00  1.20100000E+01
  1.20100000E+01  1.00800000E+00  1.00800000E+00  1.20100000E+01  1.20100000E+01
  1.20100000E+01  1.00800000E+00  1.20100000E+01  1.20100000E+01  1.20100000E+01
  1.00800000E+00  1.20100000E+01  1.00800000E+00  1.00800000E+00  1.00800000E+00
  1.20100000E+01  1.20100000E+01  1.00800000E+00  1.20100000E+01  1.20100000E+01
  1.00800000E+00  1.20100000E+01  1.00800000E+00  1.00800000E+00  1.00800000E+00
  1.20100000E+01  1.20100000E+01  1.20100000E+01  1.20100000E+01  1.20100000E+01
  1.00800000E+00  1.20100000E+01  1.20100000E+01  1.20100000E+01  1.00800000E+00
  1.20100000E+01  1.20100000E+01  1.00800000E+00  1.00800000E+00  1.20100000E+01
  1.20100000E+01  1.20100000E+01  1.00800000E+00  1.20100000E+01  1.20100000E+01
  1.20100000E+01  1.00800000E+00  1.20100000E+01  1.00800000E+00  1.00800000E+00
  1.00800000E+00  1.20100000E+01  1.20100000E+01  1.00800000E+00  1.20100000E+01
  1.20100000E+01  1.00800000E+00  1.20100000E+01  1.00800000E+00  1.00800000E+00
  1.00800000E+00  1.20100000E+01  1.20100000E+01  1.20100000E+01  1.20100000E+01
  1.20100000E+01  1.00800000E+00  1.20100000E+01  1.20100000E+01  1.20100000E+01
  1.00800000E+00  1.20100000E+01  1.20100000E+01  1.00800000E+00  1.00800000E+00
  1.20100000E+01  1.20100000E+01  1.20100000E+01  1.00800000E+00  1.20100000E+01
  1.20100000E+01  1.20100000E+01  1.00800000E+00  1.20100000E+01  1.00800000E+00
  1.00800000E+00  1.00800000E+00  1.20100000E+01  1.20100000E+01  1.00800000E+00
  1.20100000E+01  1.20100000E+01  1.00800000E+00  1.20100000E+01  1.00800000E+00
  1.00800000E+00  1.00800000E+00  1.20100000E+01  1.20100000E+01  1.20100000E+01
  1.20100000E+01  1.20100000E+01  1.00800000E+00  1.20100000E+01  1.20100000E+01
  1.20100000E+01  1.00800000E+00  1.20100000E+01  1.20100000E+01  1.00800000E+00
  1.00800000E+00  1.20100000E+01  1.20100000E+01  1.20100000E+01  1.00800000E+00
  1.20100000E+01  1.20100000E+01  1.20100000E+01  1.00800000E+00  1.20100000E+01
  1.00800000E+00  1.00800000E+00  1.00800000E+00  1.20100000E+01  1.20100000E+01
  1.00800000E+00  1.20100000E+01  1.20100000E+01  1.00800000E+00  1.20100000E+01
  1.00800000E+00  1.00800000E+00  1.00800000E+00  1.20100000E+01  1.20100000E+01
  1.20100000E+01  1.20100000E+01  1.20100000E+01  1.00800000E+00  1.20100000E+01
  1.20100000E+01  1.20100000E+01  1.00800000E+00  1.20100000E+01  1.20100000E+01
  1.00800000E+00  1.00800000E+00  1.20100000E+01  1.20100000E+01  1.20100000E+01
  1.00800000E+00  1.20100000E+01  1.20100000E+01  1.20100000E+01  1.00800000E+00
  1.20100000E+01  1.00800000E+00  1.00800000E+00  1.00800000E+00  1.20100000E+01
  1.20100000E+01  1.00800000E+00  1.20100000E+01  1.20100000E+01  1.00800000E+00
  1.20100000E+01  1.00800000E+00  1.00800000E+00  1.00800000E+00  1.20100000E+01
  1.20100000E+01  1.20100000E+01  1.20100000E+01  1.20100000E+01  1.00800000E+00
  1.20100000E+01  1.20100000E+01  1.20100000E+01  1.00800000E+00  1.20100000E+01
  1.20100000E+01  1.00800000E+00  1.00800000E+00  1.20100000E+01  1.20100000E+01
  1.20100000E+01  1.00800000E+00  1.20100000E+01  1.20100000E+01  1.20100000E+01
  1.00800000E+00  1.20100000E+01  1.00800000E+00  1.00800000E+00  1.00800000E+00
  1.20100000E+01  1.20100000E+01  1.00800000E+00  1.20100000E+01  1.20100000E+01
  1.00800000E+00  1.20100000E+01  1.00800000E+00  1.00800000E+00  1.00800000E+00
  1.20100000E+01  1.20100000E+01  1.20100000E+01  1.20100000E+01  1.20100000E+01
  1.00800000E+00  1.20100000E+01  1.20100000E+01  1.20100000E+01  1.00800000E+00
  1.20100000E+01  1.20100000E+01  1.00800000E+00  1.00800000E+00  1.20100000E+01
  1.20100000E+01  1.20100000E+01  1.00800000E+00  1.20100000E+01  1.20100000E+01
  1.20100000E+01  1.00800000E+00  1.20100000E+01  1.00800000E+00  1.00800000E+00
  1.00800000E+00  1.20100000E+01  1.20100000E+01  1.00800000E+00  1.20100000E+01
  1.20100000E+01  1.00800000E+00  1.20100000E+01  1.00800000E+00  1.00800000E+00
  1.00800000E+00  1.20100000E+01  1.20100000E+01  1.20100000E+01  1.20100000E+01
  1.20100000E+01  1.00800000E+00  1.20100000E+01  1.20100000E+01  1.20100000E+01
  1.00800000E+00  1.20100000E+01  1.20100000E+01  1.00800000E+00  1.00800000E+00
  1.20100000E+01  1.20100000E+01  1.20100000E+01  1.00800000E+00  1.20100000E+01
  1.20100000E+01  1.20100000E+01  1.00800000E+00  1.20100000E+01  1.00800000E+00
  1.00800000E+00  1.00800000E+00  1.20100000E+01  1.20100000E+01  1.00800000E+00
  1.20100000E+01  1.20100000E+01  1.00800000E+00  1.20100000E+01  1.00800000E+00
  1.00800000E+00  1.00800000E+00  1.20100000E+01  1.20100000E+01  1.20100000E+01
  1.20100000E+01  1.20100000E+01  1.00800000E+00  1.20100000E+01  1.20100000E+01
  1.20100000E+01  1.00800000E+00  1.20100000E+01  1.20100000E+01  1.00800000E+00
  1.00800000E+00  1.20100000E+01  1.20100000E+01  1.20100000E+01  1.00800000E+00
  1.20100000E+01  1.20100000E+01  1.20100000E+01  1.00800000E+00  1.20100000E+01
  1.00800000E+00  1.00800000E+00  1.00800000E+00  1.20100000E+01  1.20100000E+01
  1.00800000E+00  1.20100000E+01  1.20100000E+01  1.00800000E+00  1.20100000E+01
  1.00800000E+00  1.00800000E+00  1.00800000E+00  1.20100000E+01  1.20100000E+01
  1.20100000E+01  1.20100000E+01  1.20100000E+01  1.00800000E+00  1.20100000E+01
  1.20100000E+01  1.20100000E+01  1.00800000E+00  1.20100000E+01  1.20100000E+01
  1.00800000E+00  1.00800000E+00  1.20100000E+01  1.20100000E+01  1.20100000E+01
  1.00800000E+00  1.20100000E+01  1.20100000E+01  1.20100000E+01  1.00800000E+00
  1.20100000E+01  1.00800000E+00  1.00800000E+00  1.00800000E+00  1.20100000E+01
  1.20100000E+01  1.00800000E+00  1.20100000E+01  1.20100000E+01  1.00800000E+00
  1.20100000E+01  1.00800000E+00  1.00800000E+00  1.00800000E+00  1.20100000E+01
  1.20100000E+01  1.20100000E+01  1.20100000E+01  1.20100000E+01  1.00800000E+00
  1.20100000E+01  1.20100000E+01  1.20100000E+01  1.00800000E+00  1.20100000E+01
  1.20100000E+01  1.00800000E+00  1.00800000E+00  1.20100000E+01  1.20100000E+01
  1.20100000E+01  1.00800000E+00  1.20100000E+01  1.20100000E+01  1.20100000E+01
  1.00800000E+00  1.20100000E+01  1.00800000E+00  1.00800000E+00  1.00800000E+00
  1.20100000E+01  1.20100000E+01  1.00800000E+00  1.20100000E+01  1.20100000E+01
  1.00800000E+00  1.20100000E+01  1.00800000E+00  1.00800000E+00  1.00800000E+00
  1.20100000E+01  1.20100000E+01  1.20100000E+01  1.20100000E+01  1.20100000E+01
  1.00800000E+00  1.20100000E+01  1.20100000E+01  1.20100000E+01  1.00800000E+00
  1.20100000E+01  1.20100000E+01  1.00800000E+00  1.00800000E+00  1.20100000E+01
  1.20100000E+01  1.20100000E+01  1.00800000E+00  1.20100000E+01  1.20100000E+01
  1.20100000E+01  1.00800000E+00  1.20100000E+01  1.00800000E+00  1.00800000E+00
  1.00800000E+00  1.20100000E+01  1.20100000E+01  1.00800000E+00  1.20100000E+01
  1.20100000E+01  1.00800000E+00  1.20100000E+01  1.00800000E+00  1.00800000E+00
  1.00800000E+00  1.20100000E+01  1.20100000E+01  1.20100000E+01  1.20100000E+01
  1.20100000E+01  1.00800000E+00  1.20100000E+01  1.20100000E+01  1.20100000E+01
  1.00800000E+00  1.20100000E+01  1.20100000E+01  1.00800000E+00  1.00800000E+00
  1.20100000E+01  1.20100000E+01  1.20100000E+01  1.00800000E+00  1.20100000E+01
  1.20100000E+01  1.20100000E+01  1.00800000E+00  1.20100000E+01  1.00800000E+00
  1.00800000E+00  1.00800000E+00  1.20100000E+01  1.20100000E+01  1.00800000E+00
  1.20100000E+01  1.20100000E+01  1.00800000E+00  1.20100000E+01  1.00800000E+00
  1.00800000E+00  1.00800000E+00  1.20100000E+01  1.20100000E+01  1.20100000E+01
  1.20100000E+01  1.20100000E+01  1.00800000E+00  1.20100000E+01  1.20100000E+01
  1.20100000E+01  1.00800000E+00  1.20100000E+01  1.20100000E+01  1.00800000E+00
  1.00800000E+00  1.20100000E+01  1.20100000E+01  1.20100000E+01  1.00800000E+00
  1.20100000E+01  1.20100000E+01  1.20100000E+01  1.00800000E+00  1.20100000E+01
  1.00800000E+00  1.00800000E+00  1.00800000E+00  1.20100000E+01  1.20100000E+01
  1.00800000E+00  1.20100000E+01  1.20100000E+01  1.00800000E+00  1.20100000E+01
  1.00800000E+00  1.00800000E+00  1.00800000E+00  1.20100000E+01  1.20100000E+01
  1.20100000E+01  1.20100000E+01  1.20100000E+01  1.00800000E+00  1.20100000E+01
  1.20100000E+01  1.20100000E+01  1.00800000E+00  1.20100000E+01  1.20100000E+01
  1.00800000E+00  1.00800000E+00  1.20100000E+01  1.20100000E+01  1.20100000E+01
  1.00800000E+00  1.20100000E+01  1.20100000E+01  1.20100000E+01  1.00800000E+00
  1.20100000E+01  1.00800000E+00  1.00800000E+00  1.00800000E+00  1.20100000E+01
  1.20100000E+01  1.00800000E+00  1.20100000E+01  1.20100000E+01  1.00800000E+00
  1.20100000E+01  1.00800000E+00  1.00800000E+00  1.00800000E+00  1.20100000E+01
  1.20100000E+01  1.20100000E+01  1.20100000E+01  1.20100000E+01  1.00800000E+00
  1.20100000E+01  1.20100000E+01  1.20100000E+01  1.00800000E+00  1.20100000E+01
  1.20100000E+01  1.00800000E+00  1.00800000E+00  1.20100000E+01  1.20100000E+01
  1.20100000E+01  1.00800000E+00  1.20100000E+01  1.20100000E+01  1.20100000E+01
  1.00800000E+00  1.20100000E+01  1.00800000E+00  1.00800000E+00  1.00800000E+00
  1.20100000E+01  1.20100000E+01  1.00800000E+00  1.20100000E+01  1.20100000E+01
  1.00800000E+00  1.20100000E+01  1.00800000E+00  1.00800000E+00  1.00800000E+00
  1.20100000E+01  1.20100000E+01  1.20100000E+01  1.20100000E+01  1.20100000E+01
  1.00800000E+00  1.20100000E+01  1.20100000E+01  1.20100000E+01  1.00800000E+00
  1.20100000E+01  1.20100000E+01  1.00800000E+00  1.00800000E+00  1.20100000E+01
  1.20100000E+01  1.20100000E+01  1.00800000E+00  1.20100000E+01  1.20100000E+01
  1.20100000E+01  1.00800000E+00  1.20100000E+01  1.00800000E+00  1.00800000E+00
  1.00800000E+00  1.20100000E+01  1.20100000E+01  1.00800000E+00  1.20100000E+01
  1.20100000E+01  1.00800000E+00  1.20100000E+01  1.00800000E+00  1.00800000E+00
  1.00800000E+00  1.20100000E+01  1.20100000E+01  1.20100000E+01  1.20100000E+01
  1.20100000E+01  1.00800000E+00  1.20100000E+01  1.20100000E+01  1.20100000E+01
  1.00800000E+00  1.20100000E+01  1.20100000E+01  1.00800000E+00  1.00800000E+00
  1.20100000E+01  1.20100000E+01  1.20100000E+01  1.00800000E+00  1.20100000E+01
  1.20100000E+01  1.20100000E+01  1.00800000E+00  1.20100000E+01  1.00800000E+00
  1.00800000E+00  1.00800000E+00  1.20100000E+01  1.20100000E+01  1.00800000E+00
  1.20100000E+01  1.20100000E+01  1.00800000E+00  1.20100000E+01  1.00800000E+00
  1.00800000E+00  1.00800000E+00  1.20100000E+01  1.20100000E+01  1.20100000E+01
  1.20100000E+01  1.20100000E+01  1.00800000E+00  1.20100000E+01  1.20100000E+01
  1.20100000E+01  1.00800000E+00  1.20100000E+01  1.20100000E+01  1.00800000E+00
  1.00800000E+00  1.20100000E+01  1.20100000E+01  1.20100000E+01  1.00800000E+00
  1.20100000E+01  1.20100000E+01  1.20100000E+01  1.00800000E+00  1.20100000E+01
  1.00800000E+00  1.00800000E+00  1.00800000E+00  1.20100000E+01  1.20100000E+01
  1.00800000E+00  1.20100000E+01  1.20100000E+01  1.00800000E+00  1.20100000E+01
  1.00800000E+00  1.00800000E+00  1.00800000E+00  1.20100000E+01  1.20100000E+01
  1.20100000E+01  1.20100000E+01  1.20100000E+01  1.00800000E+00  1.20100000E+01
  1.20100000E+01  1.20100000E+01  1.00800000E+00  1.20100000E+01  1.20100000E+01
  1.00800000E+00  1.00800000E+00  1.20100000E+01  1.20100000E+01  1.20100000E+01
  1.00800000E+00  1.20100000E+01  1.20100000E+01  1.20100000E+01  1.00800000E+00
  1.20100000E+01  1.00800000E+00  1.00800000E+00  1.00800000E+00  1.20100000E+01
  1.20100000E+01  1.00800000E+00  1.20100000E+01  1.20100000E+01  1.00800000E+00
  1.20100000E+01  1.00800000E+00  1.00800000E+00  1.00800000E+00  1.20100000E+01
  1.20100000E+01  1.20100000E+01  1.20100000E+01  1.20100000E+01  1.00800000E+00
  1.20100000E+01  1.20100000E+01  1.20100000E+01  1.00800000E+00  1.20100000E+01
  1.20100000E+01  1.00800000E+00  1.00800000E+00  1.20100000E+01  1.20100000E+01
  1.20100000E+01  1.00800000E+00  1.20100000E+01  1.20100000E+01  1.20100000E+01
  1.00800000E+00  1.20100000E+01  1.00800000E+00  1.00800000E+00  1.00800000E+00
  1.20100000E+01  1.20100000E+01  1.00800000E+00  1.20100000E+01  1.20100000E+01
  1.00800000E+00  1.20100000E+01  1.00800000E+00  1.00800000E+00  1.00800000E+00
  1.20100000E+01  1.20100000E+01  1.20100000E+01  1.20100000E+01  1.20100000E+01
  1.00800000E+00  1.20100000E+01  1.20100000E+01  1.20100000E+01  1.00800000E+00
  1.20100000E+01  1.20100000E+01  1.00800000E+00  1.00800000E+00  1.20100000E+01
  1.20100000E+01  1.20100000E+01  1.00800000E+00  1.20100000E+01  1.20100000E+01
  1.20100000E+01  1.00800000E+00  1.20100000E+01  1.00800000E+00  1.00800000E+00
  1.00800000E+00  1.20100000E+01  1.20100000E+01  1.00800000E+00  1.20100000E+01
  1.20100000E+01  1.00800000E+00  1.20100000E+01  1.00800000E+00  1.00800000E+00
  1.00800000E+00  1.20100000E+01  1.20100000E+01  1.20100000E+01  1.20100000E+01
  1.20100000E+01  1.00800000E+00  1.20100000E+01  1.20100000E+01  1.20100000E+01
  1.00800000E+00  1.20100000E+01  1.20100000E+01  1.00800000E+00  1.00800000E+00
  1.20100000E+01  1.20100000E+01  1.20100000E+01  1.00800000E+00  1.20100000E+01
  1.20100000E+01  1.20100000E+01  1.00800000E+00  1.20100000E+01  1.00800000E+00
  1.00800000E+00  1.00800000E+00  1.20100000E+01  1.20100000E+01  1.00800000E+00
  1.20100000E+01  1.20100000E+01  1.00800000E+00  1.20100000E+01  1.00800000E+00
  1.00800000E+00  1.00800000E+00  1.20100000E+01  1.20100000E+01  1.20100000E+01
  1.20100000E+01  1.20100000E+01  1.00800000E+00  1.20100000E+01  1.20100000E+01
  1.20100000E+01  1.00800000E+00  1.20100000E+01  1.20100000E+01  1.00800000E+00
  1.00800000E+00  1.20100000E+01  1.20100000E+01  1.20100000E+01  1.00800000E+00
  1.20100000E+01  1.20100000E+01  1.20100000E+01  1.00800000E+00  1.20100000E+01
  1.00800000E+00  1.00800000E+00  1.00800000E+00  1.20100000E+01  1.20100000E+01
  1.00800000E+00  1.20100000E+01  1.20100000E+01  1.00800000E+00  1.20100000E+01
  1.00800000E+00  1.00800000E+00  1.00800000E+00  1.20100000E+01  1.20100000E+01
  1.20100000E+01  1.20100000E+01  1.20100000E+01  1.00800000E+00  1.20100000E+01
  1.20100000E+01  1.20100000E+01  1.00800000E+00  1.20100000E+01  1.20100000E+01
  1.00800000E+00  1.00800000E+00  1.20100000E+01  1.20100000E+01  1.20100000E+01
  1.00800000E+00  1.20100000E+01  1.20100000E+01  1.20100000E+01  1.00800000E+00
  1.20100000E+01  1.00800000E+00  1.00800000E+00  1.00800000E+00  1.20100000E+01
  1.20100000E+01  1.00800000E+00  1.20100000E+01  1.20100000E+01  1.00800000E+00
  1.20100000E+01  1.00800000E+00  1.00800000E+00  1.00800000E+00  1.20100000E+01
  1.20100000E+01  1.20100000E+01  1.20100000E+01  1.20100000E+01  1.00800000E+00
  1.20100000E+01  1.20100000E+01  1.20100000E+01  1.00800000E+00  1.20100000E+01
  1.20100000E+01  1.00800000E+00  1.00800000E+00  1.20100000E+01  1.20100000E+01
  1.20100000E+01  1.00800000E+00  1.20100000E+01  1.20100000E+01  1.20100000E+01
  1.00800000E+00  1.20100000E+01  1.00800000E+00  1.00800000E+00  1.00800000E+00
  1.20100000E+01  1.20100000E+01  1.00800000E+00  1.20100000E+01  1.20100000E+01
  1.00800000E+00  1.20100000E+01  1.00800000E+00  1.00800000E+00  1.00800000E+00
  1.20100000E+01  1.20100000E+01  1.20100000E+01  1.20100000E+01  1.20100000E+01
  1.00800000E+00  1.20100000E+01  1.20100000E+01  1.20100000E+01  1.00800000E+00
  1.20100000E+01  1.20100000E+01  1.00800000E+00  1.00800000E+00  1.20100000E+01
  1.20100000E+01  1.20100000E+01  1.00800000E+00  1.20100000E+01  1.20100000E+01
  1.20100000E+01  1.00800000E+00  1.20100000E+01  1.00800000E+00  1.00800000E+00
  1.00800000E+00  1.20100000E+01  1.20100000E+01  1.00800000E+00  1.20100000E+01
  1.20100000E+01  1.00800000E+00  1.20100000E+01  1.00800000E+00  1.00800000E+00
  1.00800000E+00  1.20100000E+01  1.20100000E+01  1.20100000E+01  1.20100000E+01
  1.20100000E+01  1.00800000E+00  1.20100000E+01  1.20100000E+01  1.20100000E+01
  1.00800000E+00  1.20100000E+01  1.20100000E+01  1.00800000E+00  1.00800000E+00
  1.20100000E+01  1.20100000E+01  1.20100000E+01  1.00800000E+00  1.20100000E+01
  1.20100000E+01  1.20100000E+01  1.00800000E+00  1.20100000E+01  1.00800000E+00
  1.00800000E+00  1.00800000E+00  1.20100000E+01  1.20100000E+01  1.00800000E+00
  1.20100000E+01  1.20100000E+01  1.00800000E+00  1.20100000E+01  1.00800000E+00
  1.00800000E+00  1.00800000E+00  1.20100000E+01  1.20100000E+01  1.20100000E+01
  1.20100000E+01  1.20100000E+01  1.00800000E+00  1.20100000E+01  1.20100000E+01
  1.20100000E+01  1.00800000E+00  1.20100000E+01  1.20100000E+01  1.00800000E+00
  1.00800000E+00  1.20100000E+01  1.20100000E+01  1.20100000E+01  1.00800000E+00
  1.20100000E+01  1.20100000E+01  1.20100000E+01  1.00800000E+00  1.20100000E+01
  1.00800000E+00  1.00800000E+00  1.00800000E+00  1.20100000E+01  1.20100000E+01
  1.00800000E+00  1.20100000E+01  1.20100000E+01  1.00800000E+00  1.20100000E+01
  1.00800000E+00  1.00800000E+00  1.00800000E+00  1.20100000E+01  1.20100000E+01
  1.20100000E+01  1.20100000E+01  1.20100000E+01  1.00800000E+00  1.20100000E+01
  1.20100000E+01  1.20100000E+01  1.00800000E+00  1.20100000E+01  1.20100000E+01
  1.00800000E+00  1.00800000E+00  1.20100000E+01  1.20100000E+01  1.20100000E+01
  1.00800000E+00  1.20100000E+01  1.20100000E+01  1.20100000E+01  1.00800000E+00
  1.20100000E+01  1.00800000E+00  1.00800000E+00  1.00800000E+00  1.20100000E+01
  1.20100000E+01  1.00800000E+00  1.20100000E+01  1.20100000E+01  1.00800000E+00
  1.20100000E+01  1.00800000E+00  1.00800000E+00  1.00800000E+00  1.20100000E+01
  1.20100000E+01  1.20100000E+01  1.20100000E+01  1.20100000E+01  1.00800000E+00
  1.20100000E+01  1.20100000E+01  1.20100000E+01  1.00800000E+00  1.20100000E+01
  1.20100000E+01  1.00800000E+00  1.00800000E+00  1.20100000E+01  1.20100000E+01
  1.20100000E+01  1.00800000E+00  1.20100000E+01  1.20100000E+01  1.20100000E+01
  1.00800000E+00  1.20100000E+01  1.00800000E+00  1.00800000E+00  1.00800000E+00
  1.20100000E+01  1.20100000E+01  1.00800000E+00  1.20100000E+01  1.20100000E+01
  1.00800000E+00  1.20100000E+01  1.00800000E+00  1.00800000E+00  1.00800000E+00
  1.20100000E+01  1.20100000E+01  1.20100000E+01  1.20100000E+01  1.20100000E+01
  1.00800000E+00  1.20100000E+01  1.20100000E+01  1.20100000E+01  1.00800000E+00
  1.20100000E+01  1.20100000E+01  1.00800000E+00  1.00800000E+00  1.20100000E+01
  1.20100000E+01  1.20100000E+01  1.00800000E+00  1.20100000E+01  1.20100000E+01
  1.20100000E+01  1.00800000E+00  1.20100000E+01  1.00800000E+00  1.00800000E+00
  1.00800000E+00  1.20100000E+01  1.20100000E+01  1.00800000E+00  1.20100000E+01
  1.20100000E+01  1.00800000E+00  1.20100000E+01  1.00800000E+00  1.00800000E+00
  1.00800000E+00  1.20100000E+01  1.20100000E+01  1.20100000E+01  1.20100000E+01
  1.20100000E+01  1.00800000E+00  1.20100000E+01  1.20100000E+01  1.20100000E+01
  1.00800000E+00  1.20100000E+01  1.20100000E+01  1.00800000E+00  1.00800000E+00
  1.20100000E+01  1.20100000E+01  1.20100000E+01  1.00800000E+00  1.20100000E+01
  1.20100000E+01  1.20100000E+01  1.00800000E+00  1.20100000E+01  1.00800000E+00
  1.00800000E+00  1.00800000E+00  1.20100000E+01  1.20100000E+01  1.00800000E+00
  1.20100000E+01  1.20100000E+01  1.00800000E+00  1.20100000E+01  1.00800000E+00
  1.00800000E+00  1.00800000E+00  1.20100000E+01  1.20100000E+01  1.20100000E+01
  1.20100000E+01  1.20100000E+01  1.00800000E+00  1.20100000E+01  1.20100000E+01
  1.20100000E+01  1.00800000E+00  1.20100000E+01  1.20100000E+01  1.00800000E+00
  1.00800000E+00  1.20100000E+01  1.20100000E+01  1.20100000E+01  1.00800000E+00
  1.20100000E+01  1.20100000E+01  1.20100000E+01  1.00800000E+00  1.20100000E+01
  1.00800000E+00  1.00800000E+00  1.00800000E+00  1.20100000E+01  1.20100000E+01
  1.00800000E+00  1.20100000E+01  1.20100000E+01  1.00800000E+00  1.20100000E+01
  1.00800000E+00  1.00800000E+00  1.00800000E+00  1.20100000E+01  1.20100000E+01
  1.20100000E+01  1.20100000E+01  1.20100000E+01  1.00800000E+00  1.20100000E+01
  1.20100000E+01  1.20100000E+01  1.00800000E+00  1.20100000E+01  1.20100000E+01
  1.00800000E+00  1.00800000E+00  1.20100000E+01  1.20100000E+01  1.20100000E+01
  1.00800000E+00  1.20100000E+01  1.20100000E+01  1.20100000E+01  1.00800000E+00
  1.20100000E+01  1.00800000E+00  1.00800000E+00  1.00800000E+00  1.20100000E+01
  1.20100000E+01  1.00800000E+00  1.20100000E+01  1.20100000E+01  1.00800000E+00
  1.20100000E+01  1.00800000E+00  1.00800000E+00  1.00800000E+00  1.20100000E+01
  1.20100000E+01  1.20100000E+01  1.20100000E+01  1.20100000E+01  1.00800000E+00
  1.20100000E+01  1.20100000E+01  1.20100000E+01  1.00800000E+00  1.20100000E+01
  1.20100000E+01  1.00800000E+00  1.00800000E+00  1.20100000E+01  1.20100000E+01
  1.20100000E+01  1.00800000E+00  1.20100000E+01  1.20100000E+01  1.20100000E+01
  1.00800000E+00  1.20100000E+01  1.00800000E+00  1.00800000E+00  1.00800000E+00
  1.20100000E+01  1.20100000E+01  1.00800000E+00  1.20100000E+01  1.20100000E+01
  1.00800000E+00  1.20100000E+01  1.00800000E+00  1.00800000E+00  1.00800000E+00
  1.20100000E+01  1.20100000E+01  1.20100000E+01  1.20100000E+01  1.20100000E+01
  1.00800000E+00  1.20100000E+01  1.20100000E+01  1.20100000E+01  1.00800000E+00
  1.20100000E+01  1.20100000E+01  1.00800000E+00  1.00800000E+00  1.20100000E+01
  1.20100000E+01  1.20100000E+01  1.00800000E+00  1.20100000E+01  1.20100000E+01
  1.20100000E+01  1.00800000E+00  1.20100000E+01  1.00800000E+00  1.00800000E+00
  1.00800000E+00  1.20100000E+01  1.20100000E+01  1.00800000E+00  1.20100000E+01
  1.20100000E+01  1.00800000E+00  1.20100000E+01  1.00800000E+00  1.00800000E+00
  1.00800000E+00  1.20100000E+01  1.20100000E+01  1.20100000E+01  1.20100000E+01
  1.20100000E+01  1.00800000E+00  1.20100000E+01  1.20100000E+01  1.20100000E+01
  1.00800000E+00  1.20100000E+01  1.20100000E+01  1.00800000E+00  1.00800000E+00
  1.20100000E+01  1.20100000E+01  1.20100000E+01  1.00800000E+00  1.20100000E+01
  1.20100000E+01  1.20100000E+01  1.00800000E+00  1.20100000E+01  1.00800000E+00
  1.00800000E+00  1.00800000E+00  1.20100000E+01  1.20100000E+01  1.00800000E+00
  1.20100000E+01  1.20100000E+01  1.00800000E+00  1.20100000E+01  1.00800000E+00
  1.00800000E+00  1.00800000E+00  1.20100000E+01  1.20100000E+01  1.20100000E+01
  1.20100000E+01  1.20100000E+01  1.00800000E+00  1.20100000E+01  1.20100000E+01
  1.20100000E+01  1.00800000E+00  1.20100000E+01  1.20100000E+01  1.00800000E+00
  1.00800000E+00  1.20100000E+01  1.20100000E+01  1.20100000E+01  1.00800000E+00
  1.20100000E+01  1.20100000E+01  1.20100000E+01  1.00800000E+00  1.20100000E+01
  1.00800000E+00  1.00800000E+00  1.00800000E+00  1.20100000E+01  1.20100000E+01
  1.00800000E+00  1.20100000E+01  1.20100000E+01  1.00800000E+00  1.20100000E+01
  1.00800000E+00  1.00800000E+00  1.00800000E+00  1.20100000E+01  1.20100000E+01
  1.20100000E+01  1.20100000E+01  1.20100000E+01  1.00800000E+00  1.20100000E+01
  1.20100000E+01  1.20100000E+01  1.00800000E+00  1.20100000E+01  1.20100000E+01
  1.00800000E+00  1.00800000E+00  1.20100000E+01  1.20100000E+01  1.20100000E+01
  1.00800000E+00  1.20100000E+01  1.20100000E+01  1.20100000E+01  1.00800000E+00
  1.20100000E+01  1.00800000E+00  1.00800000E+00  1.00800000E+00  1.20100000E+01
  1.20100000E+01  1.00800000E+00  1.20100000E+01  1.20100000E+01  1.00800000E+00
  1.20100000E+01  1.00800000E+00  1.00800000E+00  1.00800000E+00  1.20100000E+01
  1.20100000E+01  1.20100000E+01  1.20100000E+01  1.20100000E+01  1.00800000E+00
  1.20100000E+01  1.20100000E+01  1.20100000E+01  1.00800000E+00  1.20100000E+01
  1.20100000E+01  1.00800000E+00  1.00800000E+00  1.20100000E+01  1.20100000E+01
  1.20100000E+01  1.00800000E+00  1.20100000E+01  1.20100000E+01  1.20100000E+01
  1.00800000E+00  1.20100000E+01  1.00800000E+00  1.00800000E+00  1.00800000E+00
  1.20100000E+01  1.20100000E+01  1.00800000E+00  1.20100000E+01  1.20100000E+01
  1.00800000E+00  1.20100000E+01  1.00800000E+00  1.00800000E+00  1.00800000E+00
  1.20100000E+01  1.20100000E+01  1.20100000E+01  1.20100000E+01  1.20100000E+01
  1.00800000E+00  1.20100000E+01  1.20100000E+01  1.20100000E+01  1.00800000E+00
  1.20100000E+01  1.20100000E+01  1.00800000E+00  1.00800000E+00  1.20100000E+01
  1.20100000E+01  1.20100000E+01  1.00800000E+00  1.20100000E+01  1.20100000E+01
  1.20100000E+01  1.00800000E+00  1.20100000E+01  1.00800000E+00  1.00800000E+00
  1.00800000E+00  1.20100000E+01  1.20100000E+01  1.00800000E+00  1.20100000E+01
  1.20100000E+01  1.00800000E+00  1.20100000E+01  1.00800000E+00  1.00800000E+00
  1.00800000E+00  1.20100000E+01  1.20100000E+01  1.20100000E+01  1.20100000E+01
  1.20100000E+01  1.00800000E+00  1.20100000E+01  1.20100000E+01  1.20100000E+01
  1.00800000E+00  1.20100000E+01  1.20100000E+01  1.00800000E+00  1.00800000E+00
  1.20100000E+01  1.20100000E+01  1.20100000E+01  1.00800000E+00  1.20100000E+01
  1.20100000E+01  1.20100000E+01  1.00800000E+00  1.20100000E+01  1.00800000E+00
  1.00800000E+00  1.00800000E+00  1.20100000E+01  1.20100000E+01  1.00800000E+00
  1.20100000E+01  1.20100000E+01  1.00800000E+00  1.20100000E+01  1.00800000E+00
  1.00800000E+00  1.00800000E+00  1.20100000E+01  1.20100000E+01  1.20100000E+01
  1.20100000E+01  1.20100000E+01  1.00800000E+00  1.20100000E+01  1.20100000E+01
  1.20100000E+01  1.00800000E+00  1.20100000E+01  1.20100000E+01  1.00800000E+00
  1.00800000E+00  1.20100000E+01  1.20100000E+01  1.20100000E+01  1.00800000E+00
  1.20100000E+01  1.20100000E+01  1.20100000E+01  1.00800000E+00  1.20100000E+01
  1.00800000E+00  1.00800000E+00  1.00800000E+00  1.20100000E+01  1.20100000E+01
  1.00800000E+00  1.20100000E+01  1.20100000E+01  1.00800000E+00  1.20100000E+01
  1.00800000E+00  1.00800000E+00  1.00800000E+00  1.20100000E+01  1.20100000E+01
  1.20100000E+01  1.20100000E+01  1.20100000E+01  1.00800000E+00  1.20100000E+01
  1.20100000E+01  1.20100000E+01  1.00800000E+00  1.20100000E+01  1.20100000E+01
  1.00800000E+00  1.00800000E+00  1.20100000E+01  1.20100000E+01  1.20100000E+01
  1.00800000E+00  1.20100000E+01  1.20100000E+01  1.20100000E+01  1.00800000E+00
  1.20100000E+01  1.00800000E+00  1.00800000E+00  1.00800000E+00  1.20100000E+01
  1.20100000E+01  1.00800000E+00  1.20100000E+01  1.20100000E+01  1.00800000E+00
  1.20100000E+01  1.00800000E+00  1.00800000E+00  1.00800000E+00  1.20100000E+01
  1.20100000E+01  1.20100000E+01  1.20100000E+01  1.20100000E+01  1.00800000E+00
  1.20100000E+01  1.20100000E+01  1.20100000E+01  1.00800000E+00  1.20100000E+01
  1.20100000E+01  1.00800000E+00  1.00800000E+00  1.20100000E+01  1.20100000E+01
  1.20100000E+01  1.00800000E+00  1.20100000E+01  1.20100000E+01  1.20100000E+01
  1.00800000E+00  1.20100000E+01  1.00800000E+00  1.00800000E+00  1.00800000E+00
  1.20100000E+01  1.20100000E+01  1.00800000E+00  1.20100000E+01  1.20100000E+01
  1.00800000E+00  1.20100000E+01  1.00800000E+00  1.00800000E+00  1.00800000E+00
  1.20100000E+01  1.20100000E+01  1.20100000E+01  1.20100000E+01  1.20100000E+01
  1.00800000E+00  1.20100000E+01  1.20100000E+01  1.20100000E+01  1.00800000E+00
  1.20100000E+01  1.20100000E+01  1.00800000E+00  1.00800000E+00  1.20100000E+01
  1.20100000E+01  1.20100000E+01  1.00800000E+00  1.20100000E+01  1.20100000E+01
  1.20100000E+01  1.00800000E+00  1.20100000E+01  1.00800000E+00  1.00800000E+00
  1.00800000E+00  1.20100000E+01  1.20100000E+01  1.00800000E+00  1.20100000E+01
  1.20100000E+01  1.00800000E+00  1.20100000E+01  1.00800000E+00  1.00800000E+00
  1.00800000E+00  1.20100000E+01  1.20100000E+01  1.20100000E+01  1.20100000E+01
  1.20100000E+01  1.00800000E+00  1.20100000E+01  1.20100000E+01  1.20100000E+01
  1.00800000E+00  1.20100000E+01  1.20100000E+01  1.00800000E+00  1.00800000E+00
  1.20100000E+01  1.20100000E+01  1.20100000E+01  1.00800000E+00  1.20100000E+01
  1.20100000E+01  1.20100000E+01  1.00800000E+00  1.20100000E+01  1.00800000E+00
  1.00800000E+00  1.00800000E+00  1.20100000E+01  1.20100000E+01  1.00800000E+00
  1.20100000E+01  1.20100000E+01  1.00800000E+00  1.20100000E+01  1.00800000E+00
  1.00800000E+00  1.00800000E+00  1.20100000E+01  1.20100000E+01  1.20100000E+01
  1.20100000E+01  1.20100000E+01  1.00800000E+00  1.20100000E+01  1.20100000E+01
  1.20100000E+01  1.00800000E+00  1.20100000E+01  1.20100000E+01  1.00800000E+00
  1.00800000E+00  1.20100000E+01  1.20100000E+01  1.20100000E+01  1.00800000E+00
  1.20100000E+01  1.20100000E+01  1.20100000E+01  1.00800000E+00  1.20100000E+01
  1.00800000E+00  1.00800000E+00  1.00800000E+00  1.20100000E+01  1.20100000E+01
  1.00800000E+00  1.20100000E+01  1.20100000E+01  1.00800000E+00  1.20100000E+01
  1.00800000E+00  1.00800000E+00  1.00800000E+00  1.20100000E+01  1.20100000E+01
  1.20100000E+01  1.20100000E+01  1.20100000E+01  1.00800000E+00  1.20100000E+01
  1.20100000E+01  1.20100000E+01  1.00800000E+00  1.20100000E+01  1.20100000E+01
  1.00800000E+00  1.00800000E+00  1.20100000E+01  1.20100000E+01  1.20100000E+01
  1.00800000E+00  1.20100000E+01  1.20100000E+01  1.20100000E+01  1.00800000E+00
  1.20100000E+01  1.00800000E+00  1.00800000E+00  1.00800000E+00  1.20100000E+01
  1.20100000E+01  1.00800000E+00  1.20100000E+01  1.20100000E+01  1.00800000E+00
  1.20100000E+01  1.00800000E+00  1.00800000E+00  1.00800000E+00  1.20100000E+01
  1.20100000E+01  1.20100000E+01  1.20100000E+01  1.20100000E+01  1.00800000E+00
  1.20100000E+01  1.20100000E+01  1.20100000E+01  1.00800000E+00  1.20100000E+01
  1.20100000E+01  1.00800000E+00  1.00800000E+00  1.20100000E+01  1.20100000E+01
  1.20100000E+01  1.00800000E+00  1.20100000E+01  1.20100000E+01  1.20100000E+01
  1.00800000E+00  1.20100000E+01  1.00800000E+00  1.00800000E+00  1.00800000E+00
  1.20100000E+01  1.20100000E+01  1.00800000E+00  1.20100000E+01  1.20100000E+01
  1.00800000E+00  1.20100000E+01  1.00800000E+00  1.00800000E+00  1.00800000E+00
  1.20100000E+01  1.20100000E+01  1.20100000E+01  1.20100000E+01  1.20100000E+01
  1.00800000E+00  1.20100000E+01  1.20100000E+01  1.20100000E+01  1.00800000E+00
  1.20100000E+01  1.20100000E+01  1.00800000E+00  1.00800000E+00  1.20100000E+01
  1.20100000E+01  1.20100000E+01  1.00800000E+00  1.20100000E+01  1.20100000E+01
  1.20100000E+01  1.00800000E+00  1.20100000E+01  1.00800000E+00  1.00800000E+00
  1.00800000E+00  1.20100000E+01  1.20100000E+01  1.00800000E+00  1.20100000E+01
  1.20100000E+01  1.00800000E+00  1.20100000E+01  1.00800000E+00  1.00800000E+00
  1.00800000E+00  1.20100000E+01  1.20100000E+01  1.20100000E+01  1.20100000E+01
  1.20100000E+01  1.00800000E+00  1.20100000E+01  1.20100000E+01  1.20100000E+01
  1.00800000E+00  1.20100000E+01  1.20100000E+01  1.00800000E+00  1.00800000E+00
  1.20100000E+01  1.20100000E+01  1.20100000E+01  1.00800000E+00  1.20100000E+01
  1.20100000E+01  1.20100000E+01  1.00800000E+00  1.20100000E+01  1.00800000E+00
  1.00800000E+00  1.00800000E+00  1.20100000E+01  1.20100000E+01  1.00800000E+00
  1.20100000E+01  1.20100000E+01  1.00800000E+00  1.20100000E+01  1.00800000E+00
  1.00800000E+00  1.00800000E+00  1.20100000E+01  1.20100000E+01  1.20100000E+01
  1.20100000E+01  1.20100000E+01  1.00800000E+00  1.20100000E+01  1.20100000E+01
  1.20100000E+01  1.00800000E+00  1.20100000E+01  1.20100000E+01  1.00800000E+00
  1.00800000E+00  1.20100000E+01  1.20100000E+01  1.20100000E+01  1.00800000E+00
  1.20100000E+01  1.20100000E+01  1.20100000E+01  1.00800000E+00  1.20100000E+01
  1.00800000E+00  1.00800000E+00  1.00800000E+00  1.20100000E+01  1.20100000E+01
  1.00800000E+00  1.20100000E+01  1.20100000E+01  1.00800000E+00  1.20100000E+01
  1.00800000E+00  1.00800000E+00  1.00800000E+00  1.20100000E+01  1.20100000E+01
  1.20100000E+01  1.20100000E+01  1.20100000E+01  1.00800000E+00  1.20100000E+01
  1.20100000E+01  1.20100000E+01  1.00800000E+00  1.20100000E+01  1.20100000E+01
  1.00800000E+00  1.00800000E+00  1.20100000E+01  1.20100000E+01  1.20100000E+01
  1.00800000E+00  1.20100000E+01  1.20100000E+01  1.20100000E+01  1.00800000E+00
  1.20100000E+01  1.00800000E+00  1.00800000E+00  1.00800000E+00  1.20100000E+01
  1.20100000E+01  1.00800000E+00  1.20100000E+01  1.20100000E+01  1.00800000E+00
  1.20100000E+01  1.00800000E+00  1.00800000E+00  1.00800000E+00  1.20100000E+01
  1.20100000E+01  1.20100000E+01  1.20100000E+01  1.20100000E+01  1.00800000E+00
  1.20100000E+01  1.20100000E+01  1.20100000E+01  1.00800000E+00  1.20100000E+01
  1.20100000E+01  1.00800000E+00  1.00800000E+00  1.20100000E+01  1.20100000E+01
  1.20100000E+01  1.00800000E+00  1.20100000E+01  1.20100000E+01  1.20100000E+01
  1.00800000E+00  1.20100000E+01  1.00800000E+00  1.00800000E+00  1.00800000E+00
  1.20100000E+01  1.20100000E+01  1.00800000E+00  1.20100000E+01  1.20100000E+01
  1.00800000E+00  1.20100000E+01  1.00800000E+00  1.00800000E+00  1.00800000E+00
  1.20100000E+01  1.20100000E+01  1.20100000E+01  1.20100000E+01  1.20100000E+01
  1.00800000E+00  1.20100000E+01  1.20100000E+01  1.20100000E+01  1.00800000E+00
  1.20100000E+01  1.20100000E+01  1.00800000E+00  1.00800000E+00  1.20100000E+01
  1.20100000E+01  1.20100000E+01  1.00800000E+00  1.20100000E+01  1.20100000E+01
  1.20100000E+01  1.00800000E+00  1.20100000E+01  1.00800000E+00  1.00800000E+00
  1.00800000E+00  1.20100000E+01  1.20100000E+01  1.00800000E+00  1.20100000E+01
  1.20100000E+01  1.00800000E+00  1.20100000E+01  1.00800000E+00  1.00800000E+00
  1.00800000E+00  1.20100000E+01  1.20100000E+01  1.20100000E+01  1.20100000E+01
  1.20100000E+01  1.00800000E+00  1.20100000E+01  1.20100000E+01  1.20100000E+01
  1.00800000E+00  1.20100000E+01  1.20100000E+01  1.00800000E+00  1.00800000E+00
  1.20100000E+01  1.20100000E+01  1.20100000E+01  1.00800000E+00  1.20100000E+01
  1.20100000E+01  1.20100000E+01  1.00800000E+00  1.20100000E+01  1.00800000E+00
  1.00800000E+00  1.00800000E+00  1.20100000E+01  1.20100000E+01  1.00800000E+00
  1.20100000E+01  1.20100000E+01  1.00800000E+00  1.20100000E+01  1.00800000E+00
  1.00800000E+00  1.00800000E+00  1.20100000E+01  1.20100000E+01  1.20100000E+01
  1.20100000E+01  1.20100000E+01  1.00800000E+00  1.20100000E+01  1.20100000E+01
  1.20100000E+01  1.00800000E+00  1.20100000E+01  1.20100000E+01  1.00800000E+00
  1.00800000E+00  1.20100000E+01  1.20100000E+01  1.20100000E+01  1.00800000E+00
  1.20100000E+01  1.20100000E+01  1.20100000E+01  1.00800000E+00  1.20100000E+01
  1.00800000E+00  1.00800000E+00  1.00800000E+00  1.20100000E+01  1.20100000E+01
  1.00800000E+00  1.20100000E+01  1.20100000E+01  1.00800000E+00  1.20100000E+01
  1.00800000E+00  1.00800000E+00  1.00800000E+00  1.20100000E+01  1.20100000E+01
  1.20100000E+01  1.20100000E+01  1.20100000E+01  1.00800000E+00  1.20100000E+01
  1.20100000E+01  1.20100000E+01  1.00800000E+00  1.20100000E+01  1.20100000E+01
  1.00800000E+00  1.00800000E+00  1.20100000E+01  1.20100000E+01  1.20100000E+01
  1.00800000E+00  1.20100000E+01  1.20100000E+01  1.20100000E+01  1.00800000E+00
  1.20100000E+01  1.00800000E+00  1.00800000E+00  1.00800000E+00  1.20100000E+01
  1.20100000E+01  1.00800000E+00  1.20100000E+01  1.20100000E+01  1.00800000E+00
  1.20100000E+01  1.00800000E+00  1.00800000E+00  1.00800000E+00  1.20100000E+01
  1.20100000E+01  1.20100000E+01  1.20100000E+01  1.20100000E+01  1.00800000E+00
  1.20100000E+01  1.20100000E+01  1.20100000E+01  1.00800000E+00  1.20100000E+01
  1.20100000E+01  1.00800000E+00  1.00800000E+00  1.20100000E+01  1.20100000E+01
  1.20100000E+01  1.00800000E+00  1.20100000E+01  1.20100000E+01  1.20100000E+01
  1.00800000E+00  1.20100000E+01  1.00800000E+00  1.00800000E+00  1.00800000E+00
  1.20100000E+01  1.20100000E+01  1.00800000E+00  1.20100000E+01  1.20100000E+01
  1.00800000E+00  1.20100000E+01  1.00800000E+00  1.00800000E+00  1.00800000E+00
  1.20100000E+01  1.20100000E+01  1.20100000E+01  1.20100000E+01  1.20100000E+01
  1.00800000E+00  1.20100000E+01  1.20100000E+01  1.20100000E+01  1.00800000E+00
  1.20100000E+01  1.20100000E+01  1.00800000E+00  1.00800000E+00  1.20100000E+01
  1.20100000E+01  1.20100000E+01  1.00800000E+00  1.20100000E+01  1.20100000E+01
  1.20100000E+01  1.00800000E+00  1.20100000E+01  1.00800000E+00  1.00800000E+00
  1.00800000E+00  1.20100000E+01  1.20100000E+01  1.00800000E+00  1.20100000E+01
  1.20100000E+01  1.00800000E+00  1.20100000E+01  1.00800000E+00  1.00800000E+00
  1.00800000E+00  1.20100000E+01  1.20100000E+01  1.20100000E+01  1.20100000E+01
  1.20100000E+01  1.00800000E+00  1.20100000E+01  1.20100000E+01  1.20100000E+01
  1.00800000E+00  1.20100000E+01  1.20100000E+01  1.00800000E+00  1.00800000E+00
  1.20100000E+01  1.20100000E+01  1.20100000E+01  1.00800000E+00  1.20100000E+01
  1.20100000E+01  1.20100000E+01  1.00800000E+00  1.20100000E+01  1.00800000E+00
  1.00800000E+00  1.00800000E+00  1.20100000E+01  1.20100000E+01  1.00800000E+00
  1.20100000E+01  1.20100000E+01  1.00800000E+00  1.20100000E+01  1.00800000E+00
  1.00800000E+00  1.00800000E+00  1.20100000E+01  1.20100000E+01  1.20100000E+01
  1.20100000E+01  1.20100000E+01  1.00800000E+00  1.20100000E+01  1.20100000E+01
  1.20100000E+01  1.00800000E+00  1.20100000E+01  1.20100000E+01  1.00800000E+00
  1.00800000E+00  1.20100000E+01  1.20100000E+01  1.20100000E+01  1.00800000E+00
  1.20100000E+01  1.20100000E+01  1.20100000E+01  1.00800000E+00  1.20100000E+01
  1.00800000E+00  1.00800000E+00  1.00800000E+00  1.20100000E+01  1.20100000E+01
  1.00800000E+00  1.20100000E+01  1.20100000E+01  1.00800000E+00  1.20100000E+01
  1.00800000E+00  1.00800000E+00  1.00800000E+00  1.20100000E+01  1.20100000E+01
  1.20100000E+01  1.20100000E+01  1.20100000E+01  1.00800000E+00  1.20100000E+01
  1.20100000E+01  1.20100000E+01  1.00800000E+00  1.20100000E+01  1.20100000E+01
  1.00800000E+00  1.00800000E+00  1.20100000E+01  1.20100000E+01  1.20100000E+01
  1.00800000E+00  1.20100000E+01  1.20100000E+01  1.20100000E+01  1.00800000E+00
  1.20100000E+01  1.00800000E+00  1.00800000E+00  1.00800000E+00  1.20100000E+01
  1.20100000E+01  1.00800000E+00  1.20100000E+01  1.20100000E+01  1.00800000E+00
  1.20100000E+01  1.00800000E+00  1.00800000E+00  1.00800000E+00  1.20100000E+01
  1.20100000E+01  1.20100000E+01  1.20100000E+01  1.20100000E+01  1.00800000E+00
  1.20100000E+01  1.20100000E+01  1.20100000E+01  1.00800000E+00  1.20100000E+01
  1.20100000E+01  1.00800000E+00  1.00800000E+00  1.20100000E+01  1.20100000E+01
  1.20100000E+01  1.00800000E+00  1.20100000E+01  1.20100000E+01  1.20100000E+01
  1.00800000E+00  1.20100000E+01  1.00800000E+00  1.00800000E+00  1.00800000E+00
  1.20100000E+01  1.20100000E+01  1.00800000E+00  1.20100000E+01  1.20100000E+01
  1.00800000E+00  1.20100000E+01  1.00800000E+00  1.00800000E+00  1.00800000E+00
  1.20100000E+01  1.20100000E+01  1.20100000E+01  1.20100000E+01  1.20100000E+01
  1.00800000E+00  1.20100000E+01  1.20100000E+01  1.20100000E+01  1.00800000E+00
  1.20100000E+01  1.20100000E+01  1.00800000E+00  1.00800000E+00  1.20100000E+01
  1.20100000E+01  1.20100000E+01  1.00800000E+00  1.20100000E+01  1.20100000E+01
  1.20100000E+01  1.00800000E+00  1.20100000E+01  1.00800000E+00  1.00800000E+00
  1.00800000E+00  1.20100000E+01  1.20100000E+01  1.00800000E+00  1.20100000E+01
  1.20100000E+01  1.00800000E+00  1.20100000E+01  1.00800000E+00  1.00800000E+00
  1.00800000E+00  1.20100000E+01  1.20100000E+01  1.20100000E+01  1.20100000E+01
  1.20100000E+01  1.00800000E+00  1.20100000E+01  1.20100000E+01  1.20100000E+01
  1.00800000E+00  1.20100000E+01  1.20100000E+01  1.00800000E+00  1.00800000E+00
  1.20100000E+01  1.20100000E+01  1.20100000E+01  1.00800000E+00  1.20100000E+01
  1.20100000E+01  1.20100000E+01  1.00800000E+00  1.20100000E+01  1.00800000E+00
  1.00800000E+00  1.00800000E+00  1.20100000E+01  1.20100000E+01  1.00800000E+00
  1.20100000E+01  1.20100000E+01  1.00800000E+00  1.20100000E+01  1.00800000E+00
  1.00800000E+00  1.00800000E+00  1.20100000E+01  1.20100000E+01  1.20100000E+01
  1.20100000E+01  1.20100000E+01  1.00800000E+00  1.20100000E+01  1.20100000E+01
  1.20100000E+01  1.00800000E+00  1.20100000E+01  1.20100000E+01  1.00800000E+00
  1.00800000E+00  1.20100000E+01  1.20100000E+01  1.20100000E+01  1.00800000E+00
  1.20100000E+01  1.20100000E+01  1.20100000E+01  1.00800000E+00  1.20100000E+01
  1.00800000E+00  1.00800000E+00  1.00800000E+00  1.20100000E+01  1.20100000E+01
  1.00800000E+00  1.20100000E+01  1.20100000E+01  1.00800000E+00  1.20100000E+01
  1.00800000E+00  1.00800000E+00  1.00800000E+00  1.20100000E+01  1.20100000E+01
  1.20100000E+01  1.20100000E+01  1.20100000E+01  1.00800000E+00  1.20100000E+01
  1.20100000E+01  1.20100000E+01  1.00800000E+00  1.20100000E+01  1.20100000E+01
  1.00800000E+00  1.00800000E+00  1.20100000E+01  1.20100000E+01  1.20100000E+01
  1.00800000E+00  1.20100000E+01  1.20100000E+01  1.20100000E+01  1.00800000E+00
  1.20100000E+01  1.00800000E+00  1.00800000E+00  1.00800000E+00  1.20100000E+01
  1.20100000E+01  1.00800000E+00  1.20100000E+01  1.20100000E+01  1.00800000E+00
  1.20100000E+01  1.00800000E+00  1.00800000E+00  1.00800000E+00  1.20100000E+01
  1.20100000E+01  1.20100000E+01  1.20100000E+01  1.20100000E+01  1.00800000E+00
  1.20100000E+01  1.20100000E+01  1.20100000E+01  1.00800000E+00  1.20100000E+01
  1.20100000E+01  1.00800000E+00  1.00800000E+00  1.20100000E+01  1.20100000E+01
  1.20100000E+01  1.00800000E+00  1.20100000E+01  1.20100000E+01  1.20100000E+01
  1.00800000E+00  1.20100000E+01  1.00800000E+00  1.00800000E+00  1.00800000E+00
  1.20100000E+01  1.20100000E+01  1.00800000E+00  1.20100000E+01  1.20100000E+01
  1.00800000E+00  1.20100000E+01  1.00800000E+00  1.00800000E+00  1.00800000E+00
  1.20100000E+01  1.20100000E+01  1.20100000E+01  1.20100000E+01  1.20100000E+01
  1.00800000E+00  1.20100000E+01  1.20100000E+01  1.20100000E+01  1.00800000E+00
  1.20100000E+01  1.20100000E+01  1.00800000E+00  1.00800000E+00  1.20100000E+01
  1.20100000E+01  1.20100000E+01  1.00800000E+00  1.20100000E+01  1.20100000E+01
  1.20100000E+01  1.00800000E+00  1.20100000E+01  1.00800000E+00  1.00800000E+00
  1.00800000E+00  1.20100000E+01  1.20100000E+01  1.00800000E+00  1.20100000E+01
  1.20100000E+01  1.00800000E+00  1.20100000E+01  1.00800000E+00  1.00800000E+00
  1.00800000E+00  1.20100000E+01  1.20100000E+01  1.20100000E+01  1.20100000E+01
  1.20100000E+01  1.00800000E+00  1.20100000E+01  1.20100000E+01  1.20100000E+01
  1.00800000E+00  1.20100000E+01  1.20100000E+01  1.00800000E+00  1.00800000E+00
  1.20100000E+01  1.20100000E+01  1.20100000E+01  1.00800000E+00  1.20100000E+01
  1.20100000E+01  1.20100000E+01  1.00800000E+00  1.20100000E+01  1.00800000E+00
  1.00800000E+00  1.00800000E+00  1.20100000E+01  1.20100000E+01  1.00800000E+00
  1.20100000E+01  1.20100000E+01  1.00800000E+00  1.20100000E+01  1.00800000E+00
  1.00800000E+00  1.00800000E+00  1.20100000E+01  1.20100000E+01  1.20100000E+01
  1.20100000E+01  1.20100000E+01  1.00800000E+00  1.20100000E+01  1.20100000E+01
  1.20100000E+01  1.00800000E+00  1.20100000E+01  1.20100000E+01  1.00800000E+00
  1.00800000E+00  1.20100000E+01  1.20100000E+01  1.20100000E+01  1.00800000E+00
  1.20100000E+01  1.20100000E+01  1.20100000E+01  1.00800000E+00  1.20100000E+01
  1.00800000E+00  1.00800000E+00  1.00800000E+00  1.20100000E+01  1.20100000E+01
  1.00800000E+00  1.20100000E+01  1.20100000E+01  1.00800000E+00  1.20100000E+01
  1.00800000E+00  1.00800000E+00  1.00800000E+00  1.20100000E+01  1.20100000E+01
  1.20100000E+01  1.20100000E+01  1.20100000E+01  1.00800000E+00  1.20100000E+01
  1.20100000E+01  1.20100000E+01  1.00800000E+00  1.20100000E+01  1.20100000E+01
  1.00800000E+00  1.00800000E+00  1.20100000E+01  1.20100000E+01  1.20100000E+01
  1.00800000E+00  1.20100000E+01  1.20100000E+01  1.20100000E+01  1.00800000E+00
  1.20100000E+01  1.00800000E+00  1.00800000E+00  1.00800000E+00  1.20100000E+01
  1.20100000E+01  1.00800000E+00  1.20100000E+01  1.20100000E+01  1.00800000E+00
  1.20100000E+01  1.00800000E+00  1.00800000E+00  1.00800000E+00  1.20100000E+01
  1.20100000E+01  1.20100000E+01  1.20100000E+01  1.20100000E+01  1.00800000E+00
  1.20100000E+01  1.20100000E+01  1.20100000E+01  1.00800000E+00  1.20100000E+01
  1.20100000E+01  1.00800000E+00  1.00800000E+00  1.20100000E+01  1.20100000E+01
  1.20100000E+01  1.00800000E+00  1.20100000E+01  1.20100000E+01  1.20100000E+01
  1.00800000E+00  1.20100000E+01  1.00800000E+00  1.00800000E+00  1.00800000E+00
  1.20100000E+01  1.20100000E+01  1.00800000E+00  1.20100000E+01  1.20100000E+01
  1.00800000E+00  1.20100000E+01  1.00800000E+00  1.00800000E+00  1.00800000E+00
  1.20100000E+01  1.20100000E+01  1.20100000E+01  1.20100000E+01  1.20100000E+01
  1.00800000E+00  1.20100000E+01  1.20100000E+01  1.20100000E+01  1.00800000E+00
  1.20100000E+01  1.20100000E+01  1.00800000E+00  1.00800000E+00  1.20100000E+01
  1.20100000E+01  1.20100000E+01  1.00800000E+00  1.20100000E+01  1.20100000E+01
  1.20100000E+01  1.00800000E+00  1.20100000E+01  1.00800000E+00  1.00800000E+00
  1.00800000E+00  1.20100000E+01  1.20100000E+01  1.00800000E+00  1.20100000E+01
  1.20100000E+01  1.00800000E+00  1.20100000E+01  1.00800000E+00  1.00800000E+00
  1.00800000E+00  1.20100000E+01  1.20100000E+01  1.20100000E+01  1.20100000E+01
  1.20100000E+01  1.00800000E+00  1.20100000E+01  1.20100000E+01  1.20100000E+01
  1.00800000E+00  1.20100000E+01  1.20100000E+01  1.00800000E+00  1.00800000E+00
  1.20100000E+01  1.20100000E+01  1.20100000E+01  1.00800000E+00  1.20100000E+01
  1.20100000E+01  1.20100000E+01  1.00800000E+00  1.20100000E+01  1.00800000E+00
  1.00800000E+00  1.00800000E+00  1.20100000E+01  1.20100000E+01  1.00800000E+00
  1.20100000E+01  1.20100000E+01  1.00800000E+00  1.20100000E+01  1.00800000E+00
  1.00800000E+00  1.00800000E+00  1.20100000E+01  1.20100000E+01  1.20100000E+01
  1.20100000E+01  1.20100000E+01  1.00800000E+00  1.20100000E+01  1.20100000E+01
  1.20100000E+01  1.00800000E+00  1.20100000E+01  1.20100000E+01  1.00800000E+00
  1.00800000E+00  1.20100000E+01  1.20100000E+01  1.20100000E+01  1.00800000E+00
  1.20100000E+01  1.20100000E+01  1.20100000E+01  1.00800000E+00  1.20100000E+01
  1.00800000E+00  1.00800000E+00  1.00800000E+00  1.20100000E+01  1.20100000E+01
  1.00800000E+00  1.20100000E+01  1.20100000E+01  1.00800000E+00  1.20100000E+01
  1.00800000E+00  1.00800000E+00  1.00800000E+00  1.20100000E+01  1.20100000E+01
  1.20100000E+01  1.20100000E+01  1.20100000E+01  1.00800000E+00  1.20100000E+01
  1.20100000E+01  1.20100000E+01  1.00800000E+00  1.20100000E+01  1.20100000E+01
  1.00800000E+00  1.00800000E+00  1.20100000E+01  1.20100000E+01  1.20100000E+01
  1.00800000E+00  1.20100000E+01  1.20100000E+01  1.20100000E+01  1.00800000E+00
  1.20100000E+01  1.00800000E+00  1.00800000E+00  1.00800000E+00  1.20100000E+01
  1.20100000E+01  1.00800000E+00  1.20100000E+01  1.20100000E+01  1.00800000E+00
  1.20100000E+01  1.00800000E+00  1.00800000E+00  1.00800000E+00  1.20100000E+01
  1.20100000E+01  1.20100000E+01  1.20100000E+01  1.20100000E+01  1.00800000E+00
  1.20100000E+01  1.20100000E+01  1.20100000E+01  1.00800000E+00  1.20100000E+01
  1.20100000E+01  1.00800000E+00  1.00800000E+00  1.20100000E+01  1.20100000E+01
  1.20100000E+01  1.00800000E+00  1.20100000E+01  1.20100000E+01  1.20100000E+01
  1.00800000E+00  1.20100000E+01  1.00800000E+00  1.00800000E+00  1.00800000E+00
  1.20100000E+01  1.20100000E+01  1.00800000E+00  1.20100000E+01  1.20100000E+01
  1.00800000E+00  1.20100000E+01  1.00800000E+00  1.00800000E+00  1.00800000E+00
  1.20100000E+01  1.20100000E+01  1.20100000E+01  1.20100000E+01  1.20100000E+01
  1.00800000E+00  1.20100000E+01  1.20100000E+01  1.20100000E+01  1.00800000E+00
  1.20100000E+01  1.20100000E+01  1.00800000E+00  1.00800000E+00  1.20100000E+01
  1.20100000E+01  1.20100000E+01  1.00800000E+00  1.20100000E+01  1.20100000E+01
  1.20100000E+01  1.00800000E+00  1.20100000E+01  1.00800000E+00  1.00800000E+00
  1.00800000E+00  1.20100000E+01  1.20100000E+01  1.00800000E+00  1.20100000E+01
  1.20100000E+01  1.00800000E+00  1.20100000E+01  1.00800000E+00  1.00800000E+00
  1.00800000E+00  1.20100000E+01  1.20100000E+01  1.20100000E+01  1.20100000E+01
  1.20100000E+01  1.00800000E+00  1.20100000E+01  1.20100000E+01  1.20100000E+01
  1.00800000E+00  1.20100000E+01  1.20100000E+01  1.00800000E+00  1.00800000E+00
  1.20100000E+01  1.20100000E+01  1.20100000E+01  1.00800000E+00  1.20100000E+01
  1.20100000E+01  1.20100000E+01  1.00800000E+00  1.20100000E+01  1.00800000E+00
  1.00800000E+00  1.00800000E+00  1.20100000E+01  1.20100000E+01  1.00800000E+00
  1.20100000E+01  1.20100000E+01  1.00800000E+00  1.20100000E+01  1.00800000E+00
  1.00800000E+00  1.00800000E+00  1.20100000E+01  1.20100000E+01  1.20100000E+01
  1.20100000E+01  1.20100000E+01  1.00800000E+00  1.20100000E+01  1.20100000E+01
  1.20100000E+01  1.00800000E+00  1.20100000E+01  1.20100000E+01  1.00800000E+00
  1.00800000E+00  1.20100000E+01  1.20100000E+01  1.20100000E+01  1.00800000E+00
  1.20100000E+01  1.20100000E+01  1.20100000E+01  1.00800000E+00  1.20100000E+01
  1.00800000E+00  1.00800000E+00  1.00800000E+00  1.20100000E+01  1.20100000E+01
  1.00800000E+00  1.20100000E+01  1.20100000E+01  1.00800000E+00  1.20100000E+01
  1.00800000E+00  1.00800000E+00  1.00800000E+00  1.20100000E+01  1.20100000E+01
  1.20100000E+01  1.20100000E+01  1.20100000E+01  1.00800000E+00  1.20100000E+01
  1.20100000E+01  1.20100000E+01  1.00800000E+00  1.20100000E+01  1.20100000E+01
  1.00800000E+00  1.00800000E+00  1.20100000E+01  1.20100000E+01  1.20100000E+01
  1.00800000E+00  1.20100000E+01  1.20100000E+01  1.20100000E+01  1.00800000E+00
  1.20100000E+01  1.00800000E+00  1.00800000E+00  1.00800000E+00  1.20100000E+01
  1.20100000E+01  1.00800000E+00  1.20100000E+01  1.20100000E+01  1.00800000E+00
  1.20100000E+01  1.00800000E+00  1.00800000E+00  1.00800000E+00  1.20100000E+01
  1.20100000E+01  1.20100000E+01  1.20100000E+01  1.20100000E+01  1.00800000E+00
  1.20100000E+01  1.20100000E+01  1.20100000E+01  1.00800000E+00  1.20100000E+01
  1.20100000E+01  1.00800000E+00  1.00800000E+00  1.20100000E+01  1.20100000E+01
  1.20100000E+01  1.00800000E+00  1.20100000E+01  1.20100000E+01  1.20100000E+01
  1.00800000E+00  1.20100000E+01  1.00800000E+00  1.00800000E+00  1.00800000E+00
  1.20100000E+01  1.20100000E+01  1.00800000E+00  1.20100000E+01  1.20100000E+01
  1.00800000E+00  1.20100000E+01  1.00800000E+00  1.00800000E+00  1.00800000E+00
  1.20100000E+01  1.20100000E+01  1.20100000E+01  1.20100000E+01  1.20100000E+01
  1.00800000E+00  1.20100000E+01  1.20100000E+01  1.20100000E+01  1.00800000E+00
  1.20100000E+01  1.20100000E+01  1.00800000E+00  1.00800000E+00  1.20100000E+01
  1.20100000E+01  1.20100000E+01  1.00800000E+00  1.20100000E+01  1.20100000E+01
  1.20100000E+01  1.00800000E+00  1.20100000E+01  1.00800000E+00  1.00800000E+00
  1.00800000E+00  1.20100000E+01  1.20100000E+01  1.00800000E+00  1.20100000E+01
  1.20100000E+01  1.00800000E+00  1.20100000E+01  1.00800000E+00  1.00800000E+00
  1.00800000E+00  1.20100000E+01  1.20100000E+01  1.20100000E+01  1.20100000E+01
  1.20100000E+01  1.00800000E+00  1.20100000E+01  1.20100000E+01  1.20100000E+01
  1.00800000E+00  1.20100000E+01  1.20100000E+01  1.00800000E+00  1.00800000E+00
  1.20100000E+01  1.20100000E+01  1.20100000E+01  1.00800000E+00  1.20100000E+01
  1.20100000E+01  1.20100000E+01  1.00800000E+00  1.20100000E+01  1.00800000E+00
  1.00800000E+00  1.00800000E+00  1.20100000E+01  1.20100000E+01  1.00800000E+00
  1.20100000E+01  1.20100000E+01  1.00800000E+00  1.20100000E+01  1.00800000E+00
  1.00800000E+00  1.00800000E+00  1.20100000E+01  1.20100000E+01  1.20100000E+01
  1.20100000E+01  1.20100000E+01  1.00800000E+00  1.20100000E+01  1.20100000E+01
  1.20100000E+01  1.00800000E+00  1.20100000E+01  1.20100000E+01  1.00800000E+00
  1.00800000E+00  1.20100000E+01  1.20100000E+01  1.20100000E+01  1.00800000E+00
  1.20100000E+01  1.20100000E+01  1.20100000E+01  1.00800000E+00  1.20100000E+01
  1.00800000E+00  1.00800000E+00  1.00800000E+00  1.20100000E+01  1.20100000E+01
  1.00800000E+00  1.20100000E+01  1.20100000E+01  1.00800000E+00  1.20100000E+01
  1.00800000E+00  1.00800000E+00  1.00800000E+00  1.20100000E+01  1.20100000E+01
  1.20100000E+01  1.20100000E+01  1.20100000E+01  1.00800000E+00  1.20100000E+01
  1.20100000E+01  1.20100000E+01  1.00800000E+00  1.20100000E+01  1.20100000E+01
  1.00800000E+00  1.00800000E+00  1.20100000E+01  1.20100000E+01  1.20100000E+01
  1.00800000E+00  1.20100000E+01  1.20100000E+01  1.20100000E+01  1.00800000E+00
  1.20100000E+01  1.00800000E+00  1.00800000E+00  1.00800000E+00  1.20100000E+01
  1.20100000E+01  1.00800000E+00  1.20100000E+01  1.20100000E+01  1.00800000E+00
  1.20100000E+01  1.00800000E+00  1.00800000E+00  1.00800000E+00  1.20100000E+01
  1.20100000E+01  1.20100000E+01  1.20100000E+01  1.20100000E+01  1.00800000E+00
  1.20100000E+01  1.20100000E+01  1.20100000E+01  1.00800000E+00  1.20100000E+01
  1.20100000E+01  1.00800000E+00  1.00800000E+00  1.20100000E+01  1.20100000E+01
  1.20100000E+01  1.00800000E+00  1.20100000E+01  1.20100000E+01  1.20100000E+01
  1.00800000E+00  1.20100000E+01  1.00800000E+00  1.00800000E+00  1.00800000E+00
  1.20100000E+01  1.20100000E+01  1.00800000E+00  1.20100000E+01  1.20100000E+01
  1.00800000E+00  1.20100000E+01  1.00800000E+00  1.00800000E+00  1.00800000E+00
  1.20100000E+01  1.20100000E+01  1.20100000E+01  1.20100000E+01  1.20100000E+01
  1.00800000E+00  1.20100000E+01  1.20100000E+01  1.20100000E+01  1.00800000E+00
  1.20100000E+01  1.20100000E+01  1.00800000E+00  1.00800000E+00  1.20100000E+01
  1.20100000E+01  1.20100000E+01  1.00800000E+00  1.20100000E+01  1.20100000E+01
  1.20100000E+01  1.00800000E+00  1.20100000E+01  1.00800000E+00  1.00800000E+00
  1.00800000E+00  1.20100000E+01  1.20100000E+01  1.00800000E+00  1.20100000E+01
  1.20100000E+01  1.00800000E+00  1.20100000E+01  1.00800000E+00  1.00800000E+00
  1.00800000E+00  1.20100000E+01  1.20100000E+01  1.20100000E+01  1.20100000E+01
  1.20100000E+01  1.00800000E+00  1.20100000E+01  1.20100000E+01  1.20100000E+01
  1.00800000E+00  1.20100000E+01  1.20100000E+01  1.00800000E+00  1.00800000E+00
  1.20100000E+01  1.20100000E+01  1.20100000E+01  1.00800000E+00  1.20100000E+01
  1.20100000E+01  1.20100000E+01  1.00800000E+00  1.20100000E+01  1.00800000E+00
  1.00800000E+00  1.00800000E+00  1.20100000E+01  1.20100000E+01  1.00800000E+00
  1.20100000E+01  1.20100000E+01  1.00800000E+00  1.20100000E+01  1.00800000E+00
  1.00800000E+00  1.00800000E+00  1.20100000E+01  1.20100000E+01  1.20100000E+01
  1.20100000E+01  1.20100000E+01  1.00800000E+00  1.20100000E+01  1.20100000E+01
  1.20100000E+01  1.00800000E+00  1.20100000E+01  1.20100000E+01  1.00800000E+00
  1.00800000E+00  1.20100000E+01  1.20100000E+01  1.20100000E+01  1.00800000E+00
  1.20100000E+01  1.20100000E+01  1.20100000E+01  1.00800000E+00  1.20100000E+01
  1.00800000E+00  1.00800000E+00  1.00800000E+00  1.20100000E+01  1.20100000E+01
  1.00800000E+00  1.20100000E+01  1.20100000E+01  1.00800000E+00  1.20100000E+01
  1.00800000E+00  1.00800000E+00  1.00800000E+00  1.20100000E+01  1.20100000E+01
  1.20100000E+01  1.20100000E+01  1.20100000E+01  1.00800000E+00  1.20100000E+01
  1.20100000E+01  1.20100000E+01  1.00800000E+00  1.20100000E+01  1.20100000E+01
  1.00800000E+00  1.00800000E+00  1.20100000E+01  1.20100000E+01  1.20100000E+01
  1.00800000E+00  1.20100000E+01  1.20100000E+01  1.20100000E+01  1.00800000E+00
  1.20100000E+01  1.00800000E+00  1.00800000E+00  1.00800000E+00  1.20100000E+01
  1.20100000E+01  1.00800000E+00  1.20100000E+01  1.20100000E+01  1.00800000E+00
  1.20100000E+01  1.00800000E+00  1.00800000E+00  1.00800000E+00  1.20100000E+01
  1.20100000E+01  1.20100000E+01  1.20100000E+01  1.20100000E+01  1.00800000E+00
  1.20100000E+01  1.20100000E+01  1.20100000E+01  1.00800000E+00  1.20100000E+01
  1.20100000E+01  1.00800000E+00  1.00800000E+00  1.20100000E+01  1.20100000E+01
  1.20100000E+01  1.00800000E+00  1.20100000E+01  1.20100000E+01  1.20100000E+01
  1.00800000E+00  1.20100000E+01  1.00800000E+00  1.00800000E+00  1.00800000E+00
  1.20100000E+01  1.20100000E+01  1.00800000E+00  1.20100000E+01  1.20100000E+01
  1.00800000E+00  1.20100000E+01  1.00800000E+00  1.00800000E+00  1.00800000E+00
  1.20100000E+01  1.20100000E+01  1.20100000E+01  1.20100000E+01  1.20100000E+01
  1.00800000E+00  1.20100000E+01  1.20100000E+01  1.20100000E+01  1.00800000E+00
  1.20100000E+01  1.20100000E+01  1.00800000E+00  1.00800000E+00  1.20100000E+01
  1.20100000E+01  1.20100000E+01  1.00800000E+00  1.20100000E+01  1.20100000E+01
  1.20100000E+01  1.00800000E+00  1.20100000E+01  1.00800000E+00  1.00800000E+00
  1.00800000E+00  1.20100000E+01  1.20100000E+01  1.00800000E+00  1.20100000E+01
  1.20100000E+01  1.00800000E+00  1.20100000E+01  1.00800000E+00  1.00800000E+00
  1.00800000E+00  1.20100000E+01  1.20100000E+01  1.20100000E+01  1.20100000E+01
  1.20100000E+01  1.00800000E+00  1.20100000E+01  1.20100000E+01  1.20100000E+01
  1.00800000E+00  1.20100000E+01  1.20100000E+01  1.00800000E+00  1.00800000E+00
  1.20100000E+01  1.20100000E+01  1.20100000E+01  1.00800000E+00  1.20100000E+01
  1.20100000E+01  1.20100000E+01  1.00800000E+00  1.20100000E+01  1.00800000E+00
  1.00800000E+00  1.00800000E+00  1.20100000E+01  1.20100000E+01  1.00800000E+00
  1.20100000E+01  1.20100000E+01  1.00800000E+00  1.20100000E+01  1.00800000E+00
  1.00800000E+00  1.00800000E+00  1.20100000E+01  1.20100000E+01  1.20100000E+01
  1.20100000E+01  1.20100000E+01  1.00800000E+00  1.20100000E+01  1.20100000E+01
  1.20100000E+01  1.00800000E+00  1.20100000E+01  1.20100000E+01  1.00800000E+00
  1.00800000E+00  1.20100000E+01  1.20100000E+01  1.20100000E+01  1.00800000E+00
  1.20100000E+01  1.20100000E+01  1.20100000E+01  1.00800000E+00  1.20100000E+01
  1.00800000E+00  1.00800000E+00  1.00800000E+00  1.20100000E+01  1.20100000E+01
  1.00800000E+00  1.20100000E+01  1.20100000E+01  1.00800000E+00  1.20100000E+01
  1.00800000E+00  1.00800000E+00  1.00800000E+00  1.20100000E+01  1.20100000E+01
  1.20100000E+01  1.20100000E+01  1.20100000E+01  1.00800000E+00  1.20100000E+01
  1.20100000E+01  1.20100000E+01  1.00800000E+00  1.20100000E+01  1.20100000E+01
  1.00800000E+00  1.00800000E+00  1.20100000E+01  1.20100000E+01  1.20100000E+01
  1.00800000E+00  1.20100000E+01  1.20100000E+01  1.20100000E+01  1.00800000E+00
  1.20100000E+01  1.00800000E+00  1.00800000E+00  1.00800000E+00  1.20100000E+01
  1.20100000E+01  1.00800000E+00  1.20100000E+01  1.20100000E+01  1.00800000E+00
  1.20100000E+01  1.00800000E+00  1.00800000E+00  1.00800000E+00  1.20100000E+01
  1.20100000E+01  1.20100000E+01  1.20100000E+01  1.20100000E+01  1.00800000E+00
  1.20100000E+01  1.20100000E+01  1.20100000E+01  1.00800000E+00  1.20100000E+01
  1.20100000E+01  1.00800000E+00  1.00800000E+00  1.20100000E+01  1.20100000E+01
  1.20100000E+01  1.00800000E+00  1.20100000E+01  1.20100000E+01  1.20100000E+01
  1.00800000E+00  1.20100000E+01  1.00800000E+00  1.00800000E+00  1.00800000E+00
  1.20100000E+01  1.20100000E+01  1.00800000E+00  1.20100000E+01  1.20100000E+01
  1.00800000E+00  1.20100000E+01  1.00800000E+00  1.00800000E+00  1.00800000E+00
  1.20100000E+01  1.20100000E+01  1.20100000E+01  1.20100000E+01  1.20100000E+01
  1.00800000E+00  1.20100000E+01  1.20100000E+01  1.20100000E+01  1.00800000E+00
  1.20100000E+01  1.20100000E+01  1.00800000E+00  1.00800000E+00  1.20100000E+01
  1.20100000E+01  1.20100000E+01  1.00800000E+00  1.20100000E+01  1.20100000E+01
  1.20100000E+01  1.00800000E+00  1.20100000E+01  1.00800000E+00  1.00800000E+00
  1.00800000E+00  1.20100000E+01  1.20100000E+01  1.00800000E+00  1.20100000E+01
  1.20100000E+01  1.00800000E+00  1.20100000E+01  1.00800000E+00  1.00800000E+00
  1.00800000E+00  1.20100000E+01  1.20100000E+01  1.20100000E+01  1.20100000E+01
  1.20100000E+01  1.00800000E+00  1.20100000E+01  1.20100000E+01  1.20100000E+01
  1.00800000E+00  1.20100000E+01  1.20100000E+01  1.00800000E+00  1.00800000E+00
  1.20100000E+01  1.20100000E+01  1.20100000E+01  1.00800000E+00  1.20100000E+01
  1.20100000E+01  1.20100000E+01  1.00800000E+00  1.20100000E+01  1.00800000E+00
  1.00800000E+00  1.00800000E+00  1.20100000E+01  1.20100000E+01  1.00800000E+00
  1.20100000E+01  1.20100000E+01  1.00800000E+00  1.20100000E+01  1.00800000E+00
  1.00800000E+00  1.00800000E+00  1.20100000E+01  1.20100000E+01  1.20100000E+01
  1.20100000E+01  1.20100000E+01  1.00800000E+00  1.20100000E+01  1.20100000E+01
  1.20100000E+01  1.00800000E+00  1.20100000E+01  1.20100000E+01  1.00800000E+00
  1.00800000E+00  1.20100000E+01  1.20100000E+01  1.20100000E+01  1.00800000E+00
  1.20100000E+01  1.20100000E+01  1.20100000E+01  1.00800000E+00  1.20100000E+01
  1.00800000E+00  1.00800000E+00  1.00800000E+00  1.20100000E+01  1.20100000E+01
  1.00800000E+00  1.20100000E+01  1.20100000E+01  1.00800000E+00  1.20100000E+01
  1.00800000E+00  1.00800000E+00  1.00800000E+00  1.20100000E+01  1.20100000E+01
  1.20100000E+01  1.20100000E+01  1.20100000E+01  1.00800000E+00  1.20100000E+01
  1.20100000E+01  1.20100000E+01  1.00800000E+00  1.20100000E+01  1.20100000E+01
  1.00800000E+00  1.00800000E+00  1.20100000E+01  1.20100000E+01  1.20100000E+01
  1.00800000E+00  1.20100000E+01  1.20100000E+01  1.20100000E+01  1.00800000E+00
  1.20100000E+01  1.00800000E+00  1.00800000E+00  1.00800000E+00  1.20100000E+01
  1.20100000E+01  1.00800000E+00  1.20100000E+01  1.20100000E+01  1.00800000E+00
  1.20100000E+01  1.00800000E+00  1.00800000E+00  1.00800000E+00  1.20100000E+01
  1.20100000E+01  1.20100000E+01  1.20100000E+01  1.20100000E+01  1.00800000E+00
  1.20100000E+01  1.20100000E+01  1.20100000E+01  1.00800000E+00  1.20100000E+01
  1.20100000E+01  1.00800000E+00  1.00800000E+00  1.20100000E+01  1.20100000E+01
  1.20100000E+01  1.00800000E+00  1.20100000E+01  1.20100000E+01  1.20100000E+01
  1.00800000E+00  1.20100000E+01  1.00800000E+00  1.00800000E+00  1.00800000E+00
  1.20100000E+01  1.20100000E+01  1.00800000E+00  1.20100000E+01  1.20100000E+01
  1.00800000E+00  1.20100000E+01  1.00800000E+00  1.00800000E+00  1.00800000E+00
  1.20100000E+01  1.20100000E+01  1.20100000E+01  1.20100000E+01  1.20100000E+01
  1.00800000E+00  1.20100000E+01  1.20100000E+01  1.20100000E+01  1.00800000E+00
  1.20100000E+01  1.20100000E+01  1.00800000E+00  1.00800000E+00  1.20100000E+01
  1.20100000E+01  1.20100000E+01  1.00800000E+00  1.20100000E+01  1.20100000E+01
  1.20100000E+01  1.00800000E+00  1.20100000E+01  1.00800000E+00  1.00800000E+00
  1.00800000E+00  1.20100000E+01  1.20100000E+01  1.00800000E+00  1.20100000E+01
  1.20100000E+01  1.00800000E+00  1.20100000E+01  1.00800000E+00  1.00800000E+00
  1.00800000E+00  1.20100000E+01  1.20100000E+01  1.20100000E+01  1.20100000E+01
  1.20100000E+01  1.00800000E+00  1.20100000E+01  1.20100000E+01  1.20100000E+01
  1.00800000E+00  1.20100000E+01  1.20100000E+01  1.00800000E+00  1.00800000E+00
  1.20100000E+01  1.20100000E+01  1.20100000E+01  1.00800000E+00  1.20100000E+01
  1.20100000E+01  1.20100000E+01  1.00800000E+00  1.20100000E+01  1.00800000E+00
  1.00800000E+00  1.00800000E+00  1.20100000E+01  1.20100000E+01  1.00800000E+00
  1.20100000E+01  1.20100000E+01  1.00800000E+00  1.20100000E+01  1.00800000E+00
  1.00800000E+00  1.00800000E+00  1.20100000E+01  1.20100000E+01  1.20100000E+01
  1.20100000E+01  1.20100000E+01  1.00800000E+00  1.20100000E+01  1.20100000E+01
  1.20100000E+01  1.00800000E+00  1.20100000E+01  1.20100000E+01  1.00800000E+00
  1.00800000E+00  1.20100000E+01  1.20100000E+01  1.20100000E+01  1.00800000E+00
  1.20100000E+01  1.20100000E+01  1.20100000E+01  1.00800000E+00  1.20100000E+01
  1.00800000E+00  1.00800000E+00  1.00800000E+00  1.20100000E+01  1.20100000E+01
  1.00800000E+00  1.20100000E+01  1.20100000E+01  1.00800000E+00  1.20100000E+01
  1.00800000E+00  1.00800000E+00  1.00800000E+00  1.20100000E+01  1.20100000E+01
  1.20100000E+01  1.20100000E+01  1.20100000E+01  1.00800000E+00  1.20100000E+01
  1.20100000E+01  1.20100000E+01  1.00800000E+00  1.20100000E+01  1.20100000E+01
  1.00800000E+00  1.00800000E+00  1.20100000E+01  1.20100000E+01  1.20100000E+01
  1.00800000E+00  1.20100000E+01  1.20100000E+01  1.20100000E+01  1.00800000E+00
  1.20100000E+01  1.00800000E+00  1.00800000E+00  1.00800000E+00  1.20100000E+01
  1.20100000E+01  1.00800000E+00  1.20100000E+01  1.20100000E+01  1.00800000E+00
  1.20100000E+01  1.00800000E+00  1.00800000E+00  1.00800000E+00  1.20100000E+01
  1.20100000E+01  1.20100000E+01  1.20100000E+01  1.20100000E+01  1.00800000E+00
  1.20100000E+01  1.20100000E+01  1.20100000E+01  1.00800000E+00  1.20100000E+01
  1.20100000E+01  1.00800000E+00  1.00800000E+00  1.20100000E+01  1.20100000E+01
  1.20100000E+01  1.00800000E+00  1.20100000E+01  1.20100000E+01  1.20100000E+01
  1.00800000E+00  1.20100000E+01  1.00800000E+00  1.00800000E+00  1.00800000E+00
  1.20100000E+01  1.20100000E+01  1.00800000E+00  1.20100000E+01  1.20100000E+01
  1.00800000E+00  1.20100000E+01  1.00800000E+00  1.00800000E+00  1.00800000E+00
  1.20100000E+01  1.20100000E+01  1.20100000E+01  1.20100000E+01  1.20100000E+01
  1.00800000E+00  1.20100000E+01  1.20100000E+01  1.20100000E+01  1.00800000E+00
  1.20100000E+01  1.20100000E+01  1.00800000E+00  1.00800000E+00  1.20100000E+01
  1.20100000E+01  1.20100000E+01  1.00800000E+00  1.20100000E+01  1.20100000E+01
  1.20100000E+01  1.00800000E+00  1.20100000E+01  1.00800000E+00  1.00800000E+00
  1.00800000E+00  1.20100000E+01  1.20100000E+01  1.00800000E+00  1.20100000E+01
  1.20100000E+01  1.00800000E+00  1.20100000E+01  1.00800000E+00  1.00800000E+00
  1.00800000E+00  1.20100000E+01  1.20100000E+01  1.20100000E+01  1.20100000E+01
  1.20100000E+01  1.00800000E+00  1.20100000E+01  1.20100000E+01  1.20100000E+01
  1.00800000E+00  1.20100000E+01  1.20100000E+01  1.00800000E+00  1.00800000E+00
  1.20100000E+01  1.20100000E+01  1.20100000E+01  1.00800000E+00  1.20100000E+01
  1.20100000E+01  1.20100000E+01  1.00800000E+00  1.20100000E+01  1.00800000E+00
  1.00800000E+00  1.00800000E+00  1.20100000E+01  1.20100000E+01  1.00800000E+00
  1.20100000E+01  1.20100000E+01  1.00800000E+00  1.20100000E+01  1.00800000E+00
  1.00800000E+00  1.00800000E+00  1.20100000E+01  1.20100000E+01  1.20100000E+01
  1.20100000E+01  1.20100000E+01  1.00800000E+00  1.20100000E+01  1.20100000E+01
  1.20100000E+01  1.00800000E+00  1.20100000E+01  1.20100000E+01  1.00800000E+00
  1.00800000E+00  1.20100000E+01  1.20100000E+01  1.20100000E+01  1.00800000E+00
  1.20100000E+01  1.20100000E+01  1.20100000E+01  1.00800000E+00  1.20100000E+01
  1.00800000E+00  1.00800000E+00  1.00800000E+00  1.20100000E+01  1.20100000E+01
  1.00800000E+00  1.20100000E+01  1.20100000E+01  1.00800000E+00  1.20100000E+01
  1.00800000E+00  1.00800000E+00  1.00800000E+00  1.20100000E+01  1.20100000E+01
  1.20100000E+01  1.20100000E+01  1.20100000E+01  1.00800000E+00  1.20100000E+01
  1.20100000E+01  1.20100000E+01  1.00800000E+00  1.20100000E+01  1.20100000E+01
  1.00800000E+00  1.00800000E+00  1.20100000E+01  1.20100000E+01  1.20100000E+01
  1.00800000E+00  1.20100000E+01  1.20100000E+01  1.20100000E+01  1.00800000E+00
  1.20100000E+01  1.00800000E+00  1.00800000E+00  1.00800000E+00  1.20100000E+01
  1.20100000E+01  1.00800000E+00  1.20100000E+01  1.20100000E+01  1.00800000E+00
  1.20100000E+01  1.00800000E+00  1.00800000E+00  1.00800000E+00  1.20100000E+01
  1.20100000E+01  1.20100000E+01  1.20100000E+01  1.20100000E+01  1.00800000E+00
  1.20100000E+01  1.20100000E+01  1.20100000E+01  1.00800000E+00  1.20100000E+01
  1.20100000E+01  1.00800000E+00  1.00800000E+00  1.20100000E+01  1.20100000E+01
  1.20100000E+01  1.00800000E+00  1.20100000E+01  1.20100000E+01  1.20100000E+01
  1.00800000E+00  1.20100000E+01  1.00800000E+00  1.00800000E+00  1.00800000E+00
  1.20100000E+01  1.20100000E+01  1.00800000E+00  1.20100000E+01  1.20100000E+01
  1.00800000E+00  1.20100000E+01  1.00800000E+00  1.00800000E+00  1.00800000E+00
  1.20100000E+01  1.20100000E+01  1.20100000E+01  1.20100000E+01  1.20100000E+01
  1.00800000E+00  1.20100000E+01  1.20100000E+01  1.20100000E+01  1.00800000E+00
  1.20100000E+01  1.20100000E+01  1.00800000E+00  1.00800000E+00  1.20100000E+01
  1.20100000E+01  1.20100000E+01  1.00800000E+00  1.20100000E+01  1.20100000E+01
  1.20100000E+01  1.00800000E+00  1.20100000E+01  1.00800000E+00  1.00800000E+00
  1.00800000E+00  1.20100000E+01  1.20100000E+01  1.00800000E+00  1.20100000E+01
  1.20100000E+01  1.00800000E+00  1.20100000E+01  1.00800000E+00  1.00800000E+00
  1.00800000E+00  1.20100000E+01  1.20100000E+01  1.20100000E+01  1.20100000E+01
  1.20100000E+01  1.00800000E+00  1.20100000E+01  1.20100000E+01  1.20100000E+01
  1.00800000E+00  1.20100000E+01  1.20100000E+01  1.00800000E+00  1.00800000E+00
  1.20100000E+01  1.20100000E+01  1.20100000E+01  1.00800000E+00  1.20100000E+01
  1.20100000E+01  1.20100000E+01  1.00800000E+00  1.20100000E+01  1.00800000E+00
  1.00800000E+00  1.00800000E+00  1.20100000E+01  1.20100000E+01  1.00800000E+00
  1.20100000E+01  1.20100000E+01  1.00800000E+00  1.20100000E+01  1.00800000E+00
  1.00800000E+00  1.00800000E+00  1.20100000E+01  1.20100000E+01  1.20100000E+01
  1.20100000E+01  1.20100000E+01  1.00800000E+00  1.20100000E+01  1.20100000E+01
  1.20100000E+01  1.00800000E+00  1.20100000E+01  1.20100000E+01  1.00800000E+00
  1.00800000E+00  1.20100000E+01  1.20100000E+01  1.20100000E+01  1.00800000E+00
  1.20100000E+01  1.20100000E+01  1.20100000E+01  1.00800000E+00  1.20100000E+01
  1.00800000E+00  1.00800000E+00  1.00800000E+00  1.20100000E+01  1.20100000E+01
  1.00800000E+00  1.20100000E+01  1.20100000E+01  1.00800000E+00  1.20100000E+01
  1.00800000E+00  1.00800000E+00  1.00800000E+00  1.20100000E+01  1.20100000E+01
  1.20100000E+01  1.20100000E+01  1.20100000E+01  1.00800000E+00  1.20100000E+01
  1.20100000E+01  1.20100000E+01  1.00800000E+00  1.20100000E+01  1.20100000E+01
  1.00800000E+00  1.00800000E+00  1.20100000E+01  1.20100000E+01  1.20100000E+01
  1.00800000E+00  1.20100000E+01  1.20100000E+01  1.20100000E+01  1.00800000E+00
  1.20100000E+01  1.00800000E+00  1.00800000E+00  1.00800000E+00  1.20100000E+01
  1.20100000E+01  1.00800000E+00  1.20100000E+01  1.20100000E+01  1.00800000E+00
  1.20100000E+01  1.00800000E+00  1.00800000E+00  1.00800000E+00  1.20100000E+01
  1.20100000E+01  1.20100000E+01  1.20100000E+01  1.20100000E+01  1.00800000E+00
  1.20100000E+01  1.20100000E+01  1.20100000E+01  1.00800000E+00  1.20100000E+01
  1.20100000E+01  1.00800000E+00  1.00800000E+00  1.20100000E+01  1.20100000E+01
  1.20100000E+01  1.00800000E+00  1.20100000E+01  1.20100000E+01  1.20100000E+01
  1.00800000E+00  1.20100000E+01  1.00800000E+00  1.00800000E+00  1.00800000E+00
  1.20100000E+01  1.20100000E+01  1.00800000E+00  1.20100000E+01  1.20100000E+01
  1.00800000E+00  1.20100000E+01  1.00800000E+00  1.00800000E+00  1.00800000E+00
  1.20100000E+01  1.20100000E+01  1.20100000E+01  1.20100000E+01  1.20100000E+01
  1.00800000E+00  1.20100000E+01  1.20100000E+01  1.20100000E+01  1.00800000E+00
  1.20100000E+01  1.20100000E+01  1.00800000E+00  1.00800000E+00  1.20100000E+01
  1.20100000E+01  1.20100000E+01  1.00800000E+00  1.20100000E+01  1.20100000E+01
  1.20100000E+01  1.00800000E+00  1.20100000E+01  1.00800000E+00  1.00800000E+00
  1.00800000E+00  1.20100000E+01  1.20100000E+01  1.00800000E+00  1.20100000E+01
  1.20100000E+01  1.00800000E+00  1.20100000E+01  1.00800000E+00  1.00800000E+00
  1.00800000E+00  1.20100000E+01  1.20100000E+01  1.20100000E+01  1.20100000E+01
  1.20100000E+01  1.00800000E+00  1.20100000E+01  1.20100000E+01  1.20100000E+01
  1.00800000E+00  1.20100000E+01  1.20100000E+01  1.00800000E+00  1.00800000E+00
  1.20100000E+01  1.20100000E+01  1.20100000E+01  1.00800000E+00  1.20100000E+01
  1.20100000E+01  1.20100000E+01  1.00800000E+00  1.20100000E+01  1.00800000E+00
  1.00800000E+00  1.00800000E+00  1.20100000E+01  1.20100000E+01  1.00800000E+00
  1.20100000E+01  1.20100000E+01  1.00800000E+00  1.20100000E+01  1.00800000E+00
  1.00800000E+00  1.00800000E+00  1.20100000E+01  1.20100000E+01  1.20100000E+01
  1.20100000E+01  1.20100000E+01  1.00800000E+00  1.20100000E+01  1.20100000E+01
  1.20100000E+01  1.00800000E+00  1.20100000E+01  1.20100000E+01  1.00800000E+00
  1.00800000E+00  1.20100000E+01  1.20100000E+01  1.20100000E+01  1.00800000E+00
  1.20100000E+01  1.20100000E+01  1.20100000E+01  1.00800000E+00  1.20100000E+01
  1.00800000E+00  1.00800000E+00  1.00800000E+00  1.20100000E+01  1.20100000E+01
  1.00800000E+00  1.20100000E+01  1.20100000E+01  1.00800000E+00  1.20100000E+01
  1.00800000E+00  1.00800000E+00  1.00800000E+00  1.20100000E+01  1.20100000E+01
  1.20100000E+01  1.20100000E+01  1.20100000E+01  1.00800000E+00  1.20100000E+01
  1.20100000E+01  1.20100000E+01  1.00800000E+00  1.20100000E+01  1.20100000E+01
  1.00800000E+00  1.00800000E+00  1.20100000E+01  1.20100000E+01  1.20100000E+01
  1.00800000E+00  1.20100000E+01  1.20100000E+01  1.20100000E+01  1.00800000E+00
  1.20100000E+01  1.00800000E+00  1.00800000E+00  1.00800000E+00  1.20100000E+01
  1.20100000E+01  1.00800000E+00  1.20100000E+01  1.20100000E+01  1.00800000E+00
  1.20100000E+01  1.00800000E+00  1.00800000E+00  1.00800000E+00  1.20100000E+01
  1.20100000E+01  1.20100000E+01  1.20100000E+01  1.20100000E+01  1.00800000E+00
  1.20100000E+01  1.20100000E+01  1.20100000E+01  1.00800000E+00  1.20100000E+01
  1.20100000E+01  1.00800000E+00  1.00800000E+00  1.20100000E+01  1.20100000E+01
  1.20100000E+01  1.00800000E+00  1.20100000E+01  1.20100000E+01  1.20100000E+01
  1.00800000E+00  1.20100000E+01  1.00800000E+00  1.00800000E+00  1.00800000E+00
  1.20100000E+01  1.20100000E+01  1.00800000E+00  1.20100000E+01  1.20100000E+01
  1.00800000E+00  1.20100000E+01  1.00800000E+00  1.00800000E+00  1.00800000E+00
  1.20100000E+01  1.20100000E+01  1.20100000E+01  1.20100000E+01  1.20100000E+01
  1.00800000E+00  1.20100000E+01  1.20100000E+01  1.20100000E+01  1.00800000E+00
  1.20100000E+01  1.20100000E+01  1.00800000E+00  1.00800000E+00  1.20100000E+01
  1.20100000E+01  1.20100000E+01  1.00800000E+00  1.20100000E+01  1.20100000E+01
  1.20100000E+01  1.00800000E+00  1.20100000E+01  1.00800000E+00  1.00800000E+00
  1.00800000E+00  1.20100000E+01  1.20100000E+01  1.00800000E+00  1.20100000E+01
  1.20100000E+01  1.00800000E+00  1.20100000E+01  1.00800000E+00  1.00800000E+00
  1.00800000E+00  1.20100000E+01  1.20100000E+01  1.20100000E+01  1.20100000E+01
  1.20100000E+01  1.00800000E+00  1.20100000E+01  1.20100000E+01  1.20100000E+01
  1.00800000E+00  1.20100000E+01  1.20100000E+01  1.00800000E+00  1.00800000E+00
  1.20100000E+01  1.20100000E+01  1.20100000E+01  1.00800000E+00  1.20100000E+01
  1.20100000E+01  1.20100000E+01  1.00800000E+00  1.20100000E+01  1.00800000E+00
  1.00800000E+00  1.00800000E+00  1.20100000E+01  1.20100000E+01  1.00800000E+00
  1.20100000E+01  1.20100000E+01  1.00800000E+00  1.20100000E+01  1.00800000E+00
  1.00800000E+00  1.00800000E+00  1.20100000E+01  1.20100000E+01  1.20100000E+01
  1.20100000E+01  1.20100000E+01  1.00800000E+00  1.20100000E+01  1.20100000E+01
  1.20100000E+01  1.00800000E+00  1.20100000E+01  1.20100000E+01  1.00800000E+00
  1.00800000E+00  1.20100000E+01  1.20100000E+01  1.20100000E+01  1.00800000E+00
  1.20100000E+01  1.20100000E+01  1.20100000E+01  1.00800000E+00  1.20100000E+01
  1.00800000E+00  1.00800000E+00  1.00800000E+00  1.20100000E+01  1.20100000E+01
  1.00800000E+00  1.20100000E+01  1.20100000E+01  1.00800000E+00  1.20100000E+01
  1.00800000E+00  1.00800000E+00  1.00800000E+00  1.20100000E+01  1.20100000E+01
  1.20100000E+01  1.20100000E+01  1.20100000E+01  1.00800000E+00  1.20100000E+01
  1.20100000E+01  1.20100000E+01  1.00800000E+00  1.20100000E+01  1.20100000E+01
  1.00800000E+00  1.00800000E+00  1.20100000E+01  1.20100000E+01  1.20100000E+01
  1.00800000E+00  1.20100000E+01  1.20100000E+01  1.20100000E+01  1.00800000E+00
  1.20100000E+01  1.00800000E+00  1.00800000E+00  1.00800000E+00  1.20100000E+01
  1.20100000E+01  1.00800000E+00  1.20100000E+01  1.20100000E+01  1.00800000E+00
  1.20100000E+01  1.00800000E+00  1.00800000E+00  1.00800000E+00  1.20100000E+01
  1.20100000E+01  1.20100000E+01  1.20100000E+01  1.20100000E+01  1.00800000E+00
  1.20100000E+01  1.20100000E+01  1.20100000E+01  1.00800000E+00  1.20100000E+01
  1.20100000E+01  1.00800000E+00  1.00800000E+00  1.20100000E+01  1.20100000E+01
  1.20100000E+01  1.00800000E+00  1.20100000E+01  1.20100000E+01  1.20100000E+01
  1.00800000E+00  1.20100000E+01  1.00800000E+00  1.00800000E+00  1.00800000E+00
  1.20100000E+01  1.20100000E+01  1.00800000E+00  1.20100000E+01  1.20100000E+01
  1.00800000E+00  1.20100000E+01  1.00800000E+00  1.00800000E+00  1.00800000E+00
  1.20100000E+01  1.20100000E+01  1.20100000E+01  1.20100000E+01  1.20100000E+01
  1.00800000E+00  1.20100000E+01  1.20100000E+01  1.20100000E+01  1.00800000E+00
  1.20100000E+01  1.20100000E+01  1.00800000E+00  1.00800000E+00  1.20100000E+01
  1.20100000E+01  1.20100000E+01  1.00800000E+00  1.20100000E+01  1.20100000E+01
  1.20100000E+01  1.00800000E+00  1.20100000E+01  1.00800000E+00  1.00800000E+00
  1.00800000E+00  1.20100000E+01  1.20100000E+01  1.00800000E+00  1.20100000E+01
  1.20100000E+01  1.00800000E+00  1.20100000E+01  1.00800000E+00  1.00800000E+00
  1.00800000E+00  1.20100000E+01  1.20100000E+01  1.20100000E+01  1.20100000E+01
  1.20100000E+01  1.00800000E+00  1.20100000E+01  1.20100000E+01  1.20100000E+01
  1.00800000E+00  1.20100000E+01  1.20100000E+01  1.00800000E+00  1.00800000E+00
  1.20100000E+01  1.20100000E+01  1.20100000E+01  1.00800000E+00  1.20100000E+01
  1.20100000E+01  1.20100000E+01  1.00800000E+00  1.20100000E+01  1.00800000E+00
  1.00800000E+00  1.00800000E+00  1.20100000E+01  1.20100000E+01  1.00800000E+00
  1.20100000E+01  1.20100000E+01  1.00800000E+00  1.20100000E+01  1.00800000E+00
  1.00800000E+00  1.00800000E+00  1.20100000E+01  1.20100000E+01  1.20100000E+01
  1.20100000E+01  1.20100000E+01  1.00800000E+00  1.20100000E+01  1.20100000E+01
  1.20100000E+01  1.00800000E+00  1.20100000E+01  1.20100000E+01  1.00800000E+00
  1.00800000E+00  1.20100000E+01  1.20100000E+01  1.20100000E+01  1.00800000E+00
  1.20100000E+01  1.20100000E+01  1.20100000E+01  1.00800000E+00  1.20100000E+01
  1.00800000E+00  1.00800000E+00  1.00800000E+00  1.20100000E+01  1.20100000E+01
  1.00800000E+00  1.20100000E+01  1.20100000E+01  1.00800000E+00  1.20100000E+01
  1.00800000E+00  1.00800000E+00  1.00800000E+00  1.20100000E+01  1.20100000E+01
  1.20100000E+01  1.20100000E+01  1.20100000E+01  1.00800000E+00  1.20100000E+01
  1.20100000E+01  1.20100000E+01  1.00800000E+00  1.20100000E+01  1.20100000E+01
  1.00800000E+00  1.00800000E+00  1.20100000E+01  1.20100000E+01  1.20100000E+01
  1.00800000E+00  1.20100000E+01  1.20100000E+01  1.20100000E+01  1.00800000E+00
  1.20100000E+01  1.00800000E+00  1.00800000E+00  1.00800000E+00  1.20100000E+01
  1.20100000E+01  1.00800000E+00  1.20100000E+01  1.20100000E+01  1.00800000E+00
  1.20100000E+01  1.00800000E+00  1.00800000E+00  1.00800000E+00  1.20100000E+01
  1.20100000E+01  1.20100000E+01  1.20100000E+01  1.20100000E+01  1.00800000E+00
  1.20100000E+01  1.20100000E+01  1.20100000E+01  1.00800000E+00  1.20100000E+01
  1.20100000E+01  1.00800000E+00  1.00800000E+00  1.20100000E+01  1.20100000E+01
  1.20100000E+01  1.00800000E+00  1.20100000E+01  1.20100000E+01  1.20100000E+01
  1.00800000E+00  1.20100000E+01  1.00800000E+00  1.00800000E+00  1.00800000E+00
  1.20100000E+01  1.20100000E+01  1.00800000E+00  1.20100000E+01  1.20100000E+01
  1.00800000E+00  1.20100000E+01  1.00800000E+00  1.00800000E+00  1.00800000E+00
  1.20100000E+01  1.20100000E+01  1.20100000E+01  1.20100000E+01  1.20100000E+01
  1.00800000E+00  1.20100000E+01  1.20100000E+01  1.20100000E+01  1.00800000E+00
  1.20100000E+01  1.20100000E+01  1.00800000E+00  1.00800000E+00  1.20100000E+01
  1.20100000E+01  1.20100000E+01  1.00800000E+00  1.20100000E+01  1.20100000E+01
  1.20100000E+01  1.00800000E+00  1.20100000E+01  1.00800000E+00  1.00800000E+00
  1.00800000E+00  1.20100000E+01  1.20100000E+01  1.00800000E+00  1.20100000E+01
  1.20100000E+01  1.00800000E+00  1.20100000E+01  1.00800000E+00  1.00800000E+00
  1.00800000E+00  1.20100000E+01  1.20100000E+01  1.20100000E+01  1.20100000E+01
  1.20100000E+01  1.00800000E+00  1.20100000E+01  1.20100000E+01  1.20100000E+01
  1.00800000E+00  1.20100000E+01  1.20100000E+01  1.00800000E+00  1.00800000E+00
  1.20100000E+01  1.20100000E+01  1.20100000E+01  1.00800000E+00  1.20100000E+01
  1.20100000E+01  1.20100000E+01  1.00800000E+00  1.20100000E+01  1.00800000E+00
  1.00800000E+00  1.00800000E+00  1.20100000E+01  1.20100000E+01  1.00800000E+00
  1.20100000E+01  1.20100000E+01  1.00800000E+00  1.20100000E+01  1.00800000E+00
  1.00800000E+00  1.00800000E+00  1.20100000E+01  1.20100000E+01  1.20100000E+01
  1.20100000E+01  1.20100000E+01  1.00800000E+00  1.20100000E+01  1.20100000E+01
  1.20100000E+01  1.00800000E+00  1.20100000E+01  1.20100000E+01  1.00800000E+00
  1.00800000E+00  1.20100000E+01  1.20100000E+01  1.20100000E+01  1.00800000E+00
  1.20100000E+01  1.20100000E+01  1.20100000E+01  1.00800000E+00  1.20100000E+01
  1.00800000E+00  1.00800000E+00  1.00800000E+00  1.20100000E+01  1.20100000E+01
  1.00800000E+00  1.20100000E+01  1.20100000E+01  1.00800000E+00  1.20100000E+01
  1.00800000E+00  1.00800000E+00  1.00800000E+00  1.20100000E+01  1.20100000E+01
  1.20100000E+01  1.20100000E+01  1.20100000E+01  1.00800000E+00  1.20100000E+01
  1.20100000E+01  1.20100000E+01  1.00800000E+00  1.20100000E+01  1.20100000E+01
  1.00800000E+00  1.00800000E+00  1.20100000E+01  1.20100000E+01  1.20100000E+01
  1.00800000E+00  1.20100000E+01  1.20100000E+01  1.20100000E+01  1.00800000E+00
  1.20100000E+01  1.00800000E+00  1.00800000E+00  1.00800000E+00  1.20100000E+01
  1.20100000E+01  1.00800000E+00  1.20100000E+01  1.20100000E+01  1.00800000E+00
  1.20100000E+01  1.00800000E+00  1.00800000E+00  1.00800000E+00  1.20100000E+01
  1.20100000E+01  1.20100000E+01  1.20100000E+01  1.20100000E+01  1.00800000E+00
  1.20100000E+01  1.20100000E+01  1.20100000E+01  1.00800000E+00  1.20100000E+01
  1.20100000E+01  1.00800000E+00  1.00800000E+00  1.20100000E+01  1.20100000E+01
  1.20100000E+01  1.00800000E+00  1.20100000E+01  1.20100000E+01  1.20100000E+01
  1.00800000E+00  1.20100000E+01  1.00800000E+00  1.00800000E+00  1.00800000E+00
  1.20100000E+01  1.20100000E+01  1.00800000E+00  1.20100000E+01  1.20100000E+01
  1.00800000E+00  1.20100000E+01  1.00800000E+00  1.00800000E+00  1.00800000E+00
  1.20100000E+01  1.20100000E+01  1.20100000E+01  1.20100000E+01  1.20100000E+01
  1.00800000E+00  1.20100000E+01  1.20100000E+01  1.20100000E+01  1.00800000E+00
  1.20100000E+01  1.20100000E+01  1.00800000E+00  1.00800000E+00  1.20100000E+01
  1.20100000E+01  1.20100000E+01  1.00800000E+00  1.20100000E+01  1.20100000E+01
  1.20100000E+01  1.00800000E+00  1.20100000E+01  1.00800000E+00  1.00800000E+00
  1.00800000E+00  1.20100000E+01  1.20100000E+01  1.00800000E+00  1.20100000E+01
  1.20100000E+01  1.00800000E+00  1.20100000E+01  1.00800000E+00  1.00800000E+00
  1.00800000E+00  1.20100000E+01  1.20100000E+01  1.20100000E+01  1.20100000E+01
  1.20100000E+01  1.00800000E+00  1.20100000E+01  1.20100000E+01  1.20100000E+01
  1.00800000E+00  1.20100000E+01  1.20100000E+01  1.00800000E+00  1.00800000E+00
  1.20100000E+01  1.20100000E+01  1.20100000E+01  1.00800000E+00  1.20100000E+01
  1.20100000E+01  1.20100000E+01  1.00800000E+00  1.20100000E+01  1.00800000E+00
  1.00800000E+00  1.00800000E+00  1.20100000E+01  1.20100000E+01  1.00800000E+00
  1.20100000E+01  1.20100000E+01  1.00800000E+00  1.20100000E+01  1.00800000E+00
  1.00800000E+00  1.00800000E+00  1.20100000E+01  1.20100000E+01  1.20100000E+01
  1.20100000E+01  1.20100000E+01  1.00800000E+00  1.20100000E+01  1.20100000E+01
  1.20100000E+01  1.00800000E+00  1.20100000E+01  1.20100000E+01  1.00800000E+00
  1.00800000E+00  1.20100000E+01  1.20100000E+01  1.20100000E+01  1.00800000E+00
  1.20100000E+01  1.20100000E+01  1.20100000E+01  1.00800000E+00  1.20100000E+01
  1.00800000E+00  1.00800000E+00  1.00800000E+00  1.20100000E+01  1.20100000E+01
  1.00800000E+00  1.20100000E+01  1.20100000E+01  1.00800000E+00  1.20100000E+01
  1.00800000E+00  1.00800000E+00  1.00800000E+00  1.20100000E+01  1.20100000E+01
  1.20100000E+01  1.20100000E+01  1.20100000E+01  1.00800000E+00  1.20100000E+01
  1.20100000E+01  1.20100000E+01  1.00800000E+00  1.20100000E+01  1.20100000E+01
  1.00800000E+00  1.00800000E+00  1.20100000E+01  1.20100000E+01  1.20100000E+01
  1.00800000E+00  1.20100000E+01  1.20100000E+01  1.20100000E+01  1.00800000E+00
  1.20100000E+01  1.00800000E+00  1.00800000E+00  1.00800000E+00  1.20100000E+01
  1.20100000E+01  1.00800000E+00  1.20100000E+01  1.20100000E+01  1.00800000E+00
  1.20100000E+01  1.00800000E+00  1.00800000E+00  1.00800000E+00  1.20100000E+01
  1.20100000E+01  1.20100000E+01  1.20100000E+01  1.20100000E+01  1.00800000E+00
  1.20100000E+01  1.20100000E+01  1.20100000E+01  1.00800000E+00  1.20100000E+01
  1.20100000E+01  1.00800000E+00  1.00800000E+00  1.20100000E+01  1.20100000E+01
  1.20100000E+01  1.00800000E+00  1.20100000E+01  1.20100000E+01  1.20100000E+01
  1.00800000E+00  1.20100000E+01  1.00800000E+00  1.00800000E+00  1.00800000E+00
  1.20100000E+01  1.20100000E+01  1.00800000E+00  1.20100000E+01  1.20100000E+01
  1.00800000E+00  1.20100000E+01  1.00800000E+00  1.00800000E+00  1.00800000E+00
  1.20100000E+01  1.20100000E+01  1.20100000E+01  1.20100000E+01  1.20100000E+01
  1.00800000E+00  1.20100000E+01  1.20100000E+01  1.20100000E+01  1.00800000E+00
  1.20100000E+01  1.20100000E+01  1.00800000E+00  1.00800000E+00  1.20100000E+01
  1.20100000E+01  1.20100000E+01  1.00800000E+00  1.20100000E+01  1.20100000E+01
  1.20100000E+01  1.00800000E+00  1.20100000E+01  1.00800000E+00  1.00800000E+00
  1.00800000E+00  1.20100000E+01  1.20100000E+01  1.00800000E+00  1.20100000E+01
  1.20100000E+01  1.00800000E+00  1.20100000E+01  1.00800000E+00  1.00800000E+00
  1.00800000E+00  1.20100000E+01  1.20100000E+01  1.20100000E+01  1.20100000E+01
  1.20100000E+01  1.00800000E+00  1.20100000E+01  1.20100000E+01  1.20100000E+01
  1.00800000E+00  1.20100000E+01  1.20100000E+01  1.00800000E+00  1.00800000E+00
  1.20100000E+01  1.20100000E+01  1.20100000E+01  1.00800000E+00  1.20100000E+01
  1.20100000E+01  1.20100000E+01  1.00800000E+00  1.20100000E+01  1.00800000E+00
  1.00800000E+00  1.00800000E+00  1.20100000E+01  1.20100000E+01  1.00800000E+00
  1.20100000E+01  1.20100000E+01  1.00800000E+00  1.20100000E+01  1.00800000E+00
  1.00800000E+00  1.00800000E+00  1.20100000E+01  1.20100000E+01  1.20100000E+01
  1.20100000E+01  1.20100000E+01  1.00800000E+00  1.20100000E+01  1.20100000E+01
  1.20100000E+01  1.00800000E+00  1.20100000E+01  1.20100000E+01  1.00800000E+00
  1.00800000E+00  1.20100000E+01  1.20100000E+01  1.20100000E+01  1.00800000E+00
  1.20100000E+01  1.20100000E+01  1.20100000E+01  1.00800000E+00  1.20100000E+01
  1.00800000E+00  1.00800000E+00  1.00800000E+00  1.20100000E+01  1.20100000E+01
  1.00800000E+00  1.20100000E+01  1.20100000E+01  1.00800000E+00  1.20100000E+01
  1.00800000E+00  1.00800000E+00  1.00800000E+00  1.20100000E+01  1.20100000E+01
  1.20100000E+01  1.20100000E+01  1.20100000E+01  1.00800000E+00  1.20100000E+01
  1.20100000E+01  1.20100000E+01  1.00800000E+00  1.20100000E+01  1.20100000E+01
  1.00800000E+00  1.00800000E+00  1.20100000E+01  1.20100000E+01  1.20100000E+01
  1.00800000E+00  1.20100000E+01  1.20100000E+01  1.20100000E+01  1.00800000E+00
  1.20100000E+01  1.00800000E+00  1.00800000E+00  1.00800000E+00  1.20100000E+01
  1.20100000E+01  1.00800000E+00  1.20100000E+01  1.20100000E+01  1.00800000E+00
  1.20100000E+01  1.00800000E+00  1.00800000E+00  1.00800000E+00  1.20100000E+01
  1.20100000E+01  1.20100000E+01  1.20100000E+01  1.20100000E+01  1.00800000E+00
  1.20100000E+01  1.20100000E+01  1.20100000E+01  1.00800000E+00  1.20100000E+01
  1.20100000E+01  1.00800000E+00  1.00800000E+00  1.20100000E+01  1.20100000E+01
  1.20100000E+01  1.00800000E+00  1.20100000E+01  1.20100000E+01  1.20100000E+01
  1.00800000E+00  1.20100000E+01  1.00800000E+00  1.00800000E+00  1.00800000E+00
  1.20100000E+01  1.20100000E+01  1.00800000E+00  1.20100000E+01  1.20100000E+01
  1.00800000E+00  1.20100000E+01  1.00800000E+00  1.00800000E+00  1.00800000E+00
  1.20100000E+01  1.20100000E+01  1.20100000E+01  1.20100000E+01  1.20100000E+01
  1.00800000E+00  1.20100000E+01  1.20100000E+01  1.20100000E+01  1.00800000E+00
  1.20100000E+01  1.20100000E+01  1.00800000E+00  1.00800000E+00  1.20100000E+01
  1.20100000E+01  1.20100000E+01  1.00800000E+00  1.20100000E+01  1.20100000E+01
  1.20100000E+01  1.00800000E+00  1.20100000E+01  1.00800000E+00  1.00800000E+00
  1.00800000E+00  1.20100000E+01  1.20100000E+01  1.00800000E+00  1.20100000E+01
  1.20100000E+01  1.00800000E+00  1.20100000E+01  1.00800000E+00  1.00800000E+00
  1.00800000E+00  1.20100000E+01  1.20100000E+01  1.20100000E+01  1.20100000E+01
  1.20100000E+01  1.00800000E+00  1.20100000E+01  1.20100000E+01  1.20100000E+01
  1.00800000E+00  1.20100000E+01  1.20100000E+01  1.00800000E+00  1.00800000E+00
  1.20100000E+01  1.20100000E+01  1.20100000E+01  1.00800000E+00  1.20100000E+01
  1.20100000E+01  1.20100000E+01  1.00800000E+00  1.20100000E+01  1.00800000E+00
  1.00800000E+00  1.00800000E+00  1.20100000E+01  1.20100000E+01  1.00800000E+00
  1.20100000E+01  1.20100000E+01  1.00800000E+00  1.20100000E+01  1.00800000E+00
  1.00800000E+00  1.00800000E+00  1.20100000E+01  1.20100000E+01  1.20100000E+01
  1.20100000E+01  1.20100000E+01  1.00800000E+00  1.20100000E+01  1.20100000E+01
  1.20100000E+01  1.00800000E+00  1.20100000E+01  1.20100000E+01  1.00800000E+00
  1.00800000E+00  1.20100000E+01  1.20100000E+01  1.20100000E+01  1.00800000E+00
  1.20100000E+01  1.20100000E+01  1.20100000E+01  1.00800000E+00  1.20100000E+01
  1.00800000E+00  1.00800000E+00  1.00800000E+00  1.20100000E+01  1.20100000E+01
  1.00800000E+00  1.20100000E+01  1.20100000E+01  1.00800000E+00  1.20100000E+01
  1.00800000E+00  1.00800000E+00  1.00800000E+00  1.20100000E+01  1.20100000E+01
  1.20100000E+01  1.20100000E+01  1.20100000E+01  1.00800000E+00  1.20100000E+01
  1.20100000E+01  1.20100000E+01  1.00800000E+00  1.20100000E+01  1.20100000E+01
  1.00800000E+00  1.00800000E+00  1.20100000E+01  1.20100000E+01  1.20100000E+01
  1.00800000E+00  1.20100000E+01  1.20100000E+01  1.20100000E+01  1.00800000E+00
  1.20100000E+01  1.00800000E+00  1.00800000E+00  1.00800000E+00  1.20100000E+01
  1.20100000E+01  1.00800000E+00  1.20100000E+01  1.20100000E+01  1.00800000E+00
  1.20100000E+01  1.00800000E+00  1.00800000E+00  1.00800000E+00  1.20100000E+01
  1.20100000E+01  1.20100000E+01  1.20100000E+01  1.20100000E+01  1.00800000E+00
  1.20100000E+01  1.20100000E+01  1.20100000E+01  1.00800000E+00  1.20100000E+01
  1.20100000E+01  1.00800000E+00  1.00800000E+00  1.20100000E+01  1.20100000E+01
  1.20100000E+01  1.00800000E+00  1.20100000E+01  1.20100000E+01  1.20100000E+01
  1.00800000E+00  1.20100000E+01  1.00800000E+00  1.00800000E+00  1.00800000E+00
  1.20100000E+01  1.20100000E+01  1.00800000E+00  1.20100000E+01  1.20100000E+01
  1.00800000E+00  1.20100000E+01  1.00800000E+00  1.00800000E+00  1.00800000E+00
  1.20100000E+01  1.20100000E+01  1.20100000E+01  1.20100000E+01  1.20100000E+01
  1.00800000E+00  1.20100000E+01  1.20100000E+01  1.20100000E+01  1.00800000E+00
  1.20100000E+01  1.20100000E+01  1.00800000E+00  1.00800000E+00  1.20100000E+01
  1.20100000E+01  1.20100000E+01  1.00800000E+00  1.20100000E+01  1.20100000E+01
  1.20100000E+01  1.00800000E+00  1.20100000E+01  1.00800000E+00  1.00800000E+00
  1.00800000E+00  1.20100000E+01  1.20100000E+01  1.00800000E+00  1.20100000E+01
  1.20100000E+01  1.00800000E+00  1.20100000E+01  1.00800000E+00  1.00800000E+00
  1.00800000E+00  1.20100000E+01  1.20100000E+01  1.20100000E+01  1.20100000E+01
  1.20100000E+01  1.00800000E+00  1.20100000E+01  1.20100000E+01  1.20100000E+01
  1.00800000E+00  1.20100000E+01  1.20100000E+01  1.00800000E+00  1.00800000E+00
  1.20100000E+01  1.20100000E+01  1.20100000E+01  1.00800000E+00  1.20100000E+01
  1.20100000E+01  1.20100000E+01  1.00800000E+00  1.20100000E+01  1.00800000E+00
  1.00800000E+00  1.00800000E+00  1.20100000E+01  1.20100000E+01  1.00800000E+00
  1.20100000E+01  1.20100000E+01  1.00800000E+00  1.20100000E+01  1.00800000E+00
  1.00800000E+00  1.00800000E+00  1.20100000E+01  1.20100000E+01  1.20100000E+01
  1.20100000E+01  1.20100000E+01  1.00800000E+00  1.20100000E+01  1.20100000E+01
  1.20100000E+01  1.00800000E+00  1.20100000E+01  1.20100000E+01  1.00800000E+00
  1.00800000E+00  1.20100000E+01  1.20100000E+01  1.20100000E+01  1.00800000E+00
  1.20100000E+01  1.20100000E+01  1.20100000E+01  1.00800000E+00  1.20100000E+01
  1.00800000E+00  1.00800000E+00  1.00800000E+00  1.20100000E+01  1.20100000E+01
  1.00800000E+00  1.20100000E+01  1.20100000E+01  1.00800000E+00  1.20100000E+01
  1.00800000E+00  1.00800000E+00  1.00800000E+00  1.20100000E+01  1.20100000E+01
  1.20100000E+01  1.20100000E+01  1.20100000E+01  1.00800000E+00  1.20100000E+01
  1.20100000E+01  1.20100000E+01  1.00800000E+00  1.20100000E+01  1.20100000E+01
  1.00800000E+00  1.00800000E+00  1.20100000E+01  1.20100000E+01  1.20100000E+01
  1.00800000E+00  1.20100000E+01  1.20100000E+01  1.20100000E+01  1.00800000E+00
  1.20100000E+01  1.00800000E+00  1.00800000E+00  1.00800000E+00  1.20100000E+01
  1.20100000E+01  1.00800000E+00  1.20100000E+01  1.20100000E+01  1.00800000E+00
  1.20100000E+01  1.00800000E+00  1.00800000E+00  1.00800000E+00  1.20100000E+01
  1.20100000E+01  1.20100000E+01  1.20100000E+01  1.20100000E+01  1.00800000E+00
  1.20100000E+01  1.20100000E+01  1.20100000E+01  1.00800000E+00  1.20100000E+01
  1.20100000E+01  1.00800000E+00  1.00800000E+00  1.20100000E+01  1.20100000E+01
  1.20100000E+01  1.00800000E+00  1.20100000E+01  1.20100000E+01  1.20100000E+01
  1.00800000E+00  1.20100000E+01  1.00800000E+00  1.00800000E+00  1.00800000E+00
  1.20100000E+01  1.20100000E+01  1.00800000E+00  1.20100000E+01  1.20100000E+01
  1.00800000E+00  1.20100000E+01  1.00800000E+00  1.00800000E+00  1.00800000E+00
  1.20100000E+01  1.20100000E+01  1.20100000E+01  1.20100000E+01  1.20100000E+01
  1.00800000E+00  1.20100000E+01  1.20100000E+01  1.20100000E+01  1.00800000E+00
  1.20100000E+01  1.20100000E+01  1.00800000E+00  1.00800000E+00  1.20100000E+01
  1.20100000E+01  1.20100000E+01  1.00800000E+00  1.20100000E+01  1.20100000E+01
  1.20100000E+01  1.00800000E+00  1.20100000E+01  1.00800000E+00  1.00800000E+00
  1.00800000E+00  1.20100000E+01  1.20100000E+01  1.00800000E+00  1.20100000E+01
  1.20100000E+01  1.00800000E+00  1.20100000E+01  1.00800000E+00  1.00800000E+00
  1.00800000E+00  1.20100000E+01  1.20100000E+01  1.20100000E+01  1.20100000E+01
  1.20100000E+01  1.00800000E+00  1.20100000E+01  1.20100000E+01  1.20100000E+01
  1.00800000E+00  1.20100000E+01  1.20100000E+01  1.00800000E+00  1.00800000E+00
  1.20100000E+01  1.20100000E+01  1.20100000E+01  1.00800000E+00  1.20100000E+01
  1.20100000E+01  1.20100000E+01  1.00800000E+00  1.20100000E+01  1.00800000E+00
  1.00800000E+00  1.00800000E+00  1.20100000E+01  1.20100000E+01  1.00800000E+00
  1.20100000E+01  1.20100000E+01  1.00800000E+00  1.20100000E+01  1.00800000E+00
  1.00800000E+00  1.00800000E+00  1.20100000E+01  1.20100000E+01  1.20100000E+01
  1.20100000E+01  1.20100000E+01  1.00800000E+00  1.20100000E+01  1.20100000E+01
  1.20100000E+01  1.00800000E+00  1.20100000E+01  1.20100000E+01  1.00800000E+00
  1.00800000E+00  1.20100000E+01  1.20100000E+01  1.20100000E+01  1.00800000E+00
  1.20100000E+01  1.20100000E+01  1.20100000E+01  1.00800000E+00  1.20100000E+01
  1.00800000E+00  1.00800000E+00  1.00800000E+00  1.20100000E+01  1.20100000E+01
  1.00800000E+00  1.20100000E+01  1.20100000E+01  1.00800000E+00  1.20100000E+01
  1.00800000E+00  1.00800000E+00  1.00800000E+00  1.20100000E+01  1.20100000E+01
  1.20100000E+01  1.20100000E+01  1.20100000E+01  1.00800000E+00  1.20100000E+01
  1.20100000E+01  1.20100000E+01  1.00800000E+00  1.20100000E+01  1.20100000E+01
  1.00800000E+00  1.00800000E+00  1.20100000E+01  1.20100000E+01  1.20100000E+01
  1.00800000E+00  1.20100000E+01  1.20100000E+01  1.20100000E+01  1.00800000E+00
  1.20100000E+01  1.00800000E+00  1.00800000E+00  1.00800000E+00  1.20100000E+01
  1.20100000E+01  1.00800000E+00  1.20100000E+01  1.20100000E+01  1.00800000E+00
  1.20100000E+01  1.00800000E+00  1.00800000E+00  1.00800000E+00  1.20100000E+01
  1.20100000E+01  1.20100000E+01  1.20100000E+01  1.20100000E+01  1.00800000E+00
  1.20100000E+01  1.20100000E+01  1.20100000E+01  1.00800000E+00  1.20100000E+01
  1.20100000E+01  1.00800000E+00  1.00800000E+00  1.20100000E+01  1.20100000E+01
  1.20100000E+01  1.00800000E+00  1.20100000E+01  1.20100000E+01  1.20100000E+01
  1.00800000E+00  1.20100000E+01  1.00800000E+00  1.00800000E+00  1.00800000E+00
  1.20100000E+01  1.20100000E+01  1.00800000E+00  1.20100000E+01  1.20100000E+01
  1.00800000E+00  1.20100000E+01  1.00800000E+00  1.00800000E+00  1.00800000E+00
  1.20100000E+01  1.20100000E+01  1.20100000E+01  1.20100000E+01  1.20100000E+01
  1.00800000E+00  1.20100000E+01  1.20100000E+01  1.20100000E+01  1.00800000E+00
  1.20100000E+01  1.20100000E+01  1.00800000E+00  1.00800000E+00  1.20100000E+01
  1.20100000E+01  1.20100000E+01  1.00800000E+00  1.20100000E+01  1.20100000E+01
  1.20100000E+01  1.00800000E+00  1.20100000E+01  1.00800000E+00  1.00800000E+00
  1.00800000E+00  1.20100000E+01  1.20100000E+01  1.00800000E+00  1.20100000E+01
  1.20100000E+01  1.00800000E+00  1.20100000E+01  1.00800000E+00  1.00800000E+00
  1.00800000E+00  1.20100000E+01  1.20100000E+01  1.20100000E+01  1.20100000E+01
  1.20100000E+01  1.00800000E+00  1.20100000E+01  1.20100000E+01  1.20100000E+01
  1.00800000E+00  1.20100000E+01  1.20100000E+01  1.00800000E+00  1.00800000E+00
  1.20100000E+01  1.20100000E+01  1.20100000E+01  1.00800000E+00  1.20100000E+01
  1.20100000E+01  1.20100000E+01  1.00800000E+00  1.20100000E+01  1.00800000E+00
  1.00800000E+00  1.00800000E+00  1.20100000E+01  1.20100000E+01  1.00800000E+00
  1.20100000E+01  1.20100000E+01  1.00800000E+00  1.20100000E+01  1.00800000E+00
  1.00800000E+00  1.00800000E+00  1.20100000E+01  1.20100000E+01  1.20100000E+01
  1.20100000E+01  1.20100000E+01  1.00800000E+00  1.20100000E+01  1.20100000E+01
  1.20100000E+01  1.00800000E+00  1.20100000E+01  1.20100000E+01  1.00800000E+00
  1.00800000E+00  1.20100000E+01  1.20100000E+01  1.20100000E+01  1.00800000E+00
  1.20100000E+01  1.20100000E+01  1.20100000E+01  1.00800000E+00  1.20100000E+01
  1.00800000E+00  1.00800000E+00  1.00800000E+00  1.20100000E+01  1.20100000E+01
  1.00800000E+00  1.20100000E+01  1.20100000E+01  1.00800000E+00  1.20100000E+01
  1.00800000E+00  1.00800000E+00  1.00800000E+00  1.20100000E+01  1.20100000E+01
  1.20100000E+01  1.20100000E+01  1.20100000E+01  1.00800000E+00  1.20100000E+01
  1.20100000E+01  1.20100000E+01  1.00800000E+00  1.20100000E+01  1.20100000E+01
  1.00800000E+00  1.00800000E+00  1.20100000E+01  1.20100000E+01  1.20100000E+01
  1.00800000E+00  1.20100000E+01  1.20100000E+01  1.20100000E+01  1.00800000E+00
  1.20100000E+01  1.00800000E+00  1.00800000E+00  1.00800000E+00  1.20100000E+01
  1.20100000E+01  1.00800000E+00  1.20100000E+01  1.20100000E+01  1.00800000E+00
  1.20100000E+01  1.00800000E+00  1.00800000E+00  1.00800000E+00  1.20100000E+01
  1.20100000E+01  1.20100000E+01  1.20100000E+01  1.20100000E+01  1.00800000E+00
  1.20100000E+01  1.20100000E+01  1.20100000E+01  1.00800000E+00  1.20100000E+01
  1.20100000E+01  1.00800000E+00  1.00800000E+00  1.20100000E+01  1.20100000E+01
  1.20100000E+01  1.00800000E+00  1.20100000E+01  1.20100000E+01  1.20100000E+01
  1.00800000E+00  1.20100000E+01  1.00800000E+00  1.00800000E+00  1.00800000E+00
  1.20100000E+01  1.20100000E+01  1.00800000E+00  1.20100000E+01  1.20100000E+01
  1.00800000E+00  1.20100000E+01  1.00800000E+00  1.00800000E+00  1.00800000E+00
  1.20100000E+01  1.20100000E+01  1.20100000E+01  1.20100000E+01  1.20100000E+01
  1.00800000E+00  1.20100000E+01  1.20100000E+01  1.20100000E+01  1.00800000E+00
  1.20100000E+01  1.20100000E+01  1.00800000E+00  1.00800000E+00  1.20100000E+01
  1.20100000E+01  1.20100000E+01  1.00800000E+00  1.20100000E+01  1.20100000E+01
  1.20100000E+01  1.00800000E+00  1.20100000E+01  1.00800000E+00  1.00800000E+00
  1.00800000E+00  1.20100000E+01  1.20100000E+01  1.00800000E+00  1.20100000E+01
  1.20100000E+01  1.00800000E+00  1.20100000E+01  1.00800000E+00  1.00800000E+00
  1.00800000E+00  1.20100000E+01  1.20100000E+01  1.20100000E+01  1.20100000E+01
  1.20100000E+01  1.00800000E+00  1.20100000E+01  1.20100000E+01  1.20100000E+01
  1.00800000E+00  1.20100000E+01  1.20100000E+01  1.00800000E+00  1.00800000E+00
  1.20100000E+01  1.20100000E+01  1.20100000E+01  1.00800000E+00  1.20100000E+01
  1.20100000E+01  1.20100000E+01  1.00800000E+00  1.20100000E+01  1.00800000E+00
  1.00800000E+00  1.00800000E+00  1.20100000E+01  1.20100000E+01  1.00800000E+00
  1.20100000E+01  1.20100000E+01  1.00800000E+00  1.20100000E+01  1.00800000E+00
  1.00800000E+00  1.00800000E+00  1.20100000E+01  1.20100000E+01  1.20100000E+01
  1.20100000E+01  1.20100000E+01  1.00800000E+00  1.20100000E+01  1.20100000E+01
  1.20100000E+01  1.00800000E+00  1.20100000E+01  1.20100000E+01  1.00800000E+00
  1.00800000E+00  1.20100000E+01  1.20100000E+01  1.20100000E+01  1.00800000E+00
  1.20100000E+01  1.20100000E+01  1.20100000E+01  1.00800000E+00  1.20100000E+01
  1.00800000E+00  1.00800000E+00  1.00800000E+00  1.20100000E+01  1.20100000E+01
  1.00800000E+00  1.20100000E+01  1.20100000E+01  1.00800000E+00  1.20100000E+01
  1.00800000E+00  1.00800000E+00  1.00800000E+00  1.20100000E+01  1.20100000E+01
  1.20100000E+01  1.20100000E+01  1.20100000E+01  1.00800000E+00  1.20100000E+01
  1.20100000E+01  1.20100000E+01  1.00800000E+00  1.20100000E+01  1.20100000E+01
  1.00800000E+00  1.00800000E+00  1.20100000E+01  1.20100000E+01  1.20100000E+01
  1.00800000E+00  1.20100000E+01  1.20100000E+01  1.20100000E+01  1.00800000E+00
  1.20100000E+01  1.00800000E+00  1.00800000E+00  1.00800000E+00  1.20100000E+01
  1.20100000E+01  1.00800000E+00  1.20100000E+01  1.20100000E+01  1.00800000E+00
  1.20100000E+01  1.00800000E+00  1.00800000E+00  1.00800000E+00  1.20100000E+01
  1.20100000E+01  1.20100000E+01  1.20100000E+01  1.20100000E+01  1.00800000E+00
  1.20100000E+01  1.20100000E+01  1.20100000E+01  1.00800000E+00  1.20100000E+01
  1.20100000E+01  1.00800000E+00  1.00800000E+00  1.20100000E+01  1.20100000E+01
  1.20100000E+01  1.00800000E+00  1.20100000E+01  1.20100000E+01  1.20100000E+01
  1.00800000E+00  1.20100000E+01  1.00800000E+00  1.00800000E+00  1.00800000E+00
  1.20100000E+01  1.20100000E+01  1.00800000E+00  1.20100000E+01  1.20100000E+01
  1.00800000E+00  1.20100000E+01  1.00800000E+00  1.00800000E+00  1.00800000E+00
  1.20100000E+01  1.20100000E+01  1.20100000E+01  1.20100000E+01  1.20100000E+01
  1.00800000E+00  1.20100000E+01  1.20100000E+01  1.20100000E+01  1.00800000E+00
  1.20100000E+01  1.20100000E+01  1.00800000E+00  1.00800000E+00  1.20100000E+01
  1.20100000E+01  1.20100000E+01  1.00800000E+00  1.20100000E+01  1.20100000E+01
  1.20100000E+01  1.00800000E+00  1.20100000E+01  1.00800000E+00  1.00800000E+00
  1.00800000E+00  1.20100000E+01  1.20100000E+01  1.00800000E+00  1.20100000E+01
  1.20100000E+01  1.00800000E+00  1.20100000E+01  1.00800000E+00  1.00800000E+00
  1.00800000E+00  1.20100000E+01  1.20100000E+01  1.20100000E+01  1.20100000E+01
  1.20100000E+01  1.00800000E+00  1.20100000E+01  1.20100000E+01  1.20100000E+01
  1.00800000E+00  1.20100000E+01  1.20100000E+01  1.00800000E+00  1.00800000E+00
  1.20100000E+01  1.20100000E+01  1.20100000E+01  1.00800000E+00  1.20100000E+01
  1.20100000E+01  1.20100000E+01  1.00800000E+00  1.20100000E+01  1.00800000E+00
  1.00800000E+00  1.00800000E+00  1.20100000E+01  1.20100000E+01  1.00800000E+00
  1.20100000E+01  1.20100000E+01  1.00800000E+00  1.20100000E+01  1.00800000E+00
  1.00800000E+00  1.00800000E+00  1.20100000E+01  1.20100000E+01  1.20100000E+01
  1.20100000E+01  1.20100000E+01  1.00800000E+00  1.20100000E+01  1.20100000E+01
  1.20100000E+01  1.00800000E+00  1.20100000E+01  1.20100000E+01  1.00800000E+00
  1.00800000E+00  1.20100000E+01  1.20100000E+01  1.20100000E+01  1.00800000E+00
  1.20100000E+01  1.20100000E+01  1.20100000E+01  1.00800000E+00  1.20100000E+01
  1.00800000E+00  1.00800000E+00  1.00800000E+00  1.20100000E+01  1.20100000E+01
  1.00800000E+00  1.20100000E+01  1.20100000E+01  1.00800000E+00  1.20100000E+01
  1.00800000E+00  1.00800000E+00  1.00800000E+00  1.20100000E+01  1.20100000E+01
  1.20100000E+01  1.20100000E+01  1.20100000E+01  1.00800000E+00  1.20100000E+01
  1.20100000E+01  1.20100000E+01  1.00800000E+00  1.20100000E+01  1.20100000E+01
  1.00800000E+00  1.00800000E+00  1.20100000E+01  1.20100000E+01  1.20100000E+01
  1.00800000E+00  1.20100000E+01  1.20100000E+01  1.20100000E+01  1.00800000E+00
  1.20100000E+01  1.00800000E+00  1.00800000E+00  1.00800000E+00  1.20100000E+01
  1.20100000E+01  1.00800000E+00  1.20100000E+01  1.20100000E+01  1.00800000E+00
  1.20100000E+01  1.00800000E+00  1.00800000E+00  1.00800000E+00  1.20100000E+01
  1.20100000E+01  1.20100000E+01  1.20100000E+01  1.20100000E+01  1.00800000E+00
  1.20100000E+01  1.20100000E+01  1.20100000E+01  1.00800000E+00  1.20100000E+01
  1.20100000E+01  1.00800000E+00  1.00800000E+00  1.20100000E+01  1.20100000E+01
  1.20100000E+01  1.00800000E+00  1.20100000E+01  1.20100000E+01  1.20100000E+01
  1.00800000E+00  1.20100000E+01  1.00800000E+00  1.00800000E+00  1.00800000E+00
  1.20100000E+01  1.20100000E+01  1.00800000E+00  1.20100000E+01  1.20100000E+01
  1.00800000E+00  1.20100000E+01  1.00800000E+00  1.00800000E+00  1.00800000E+00
  1.20100000E+01  1.20100000E+01  1.20100000E+01  1.20100000E+01  1.20100000E+01
  1.00800000E+00  1.20100000E+01  1.20100000E+01  1.20100000E+01  1.00800000E+00
  1.20100000E+01  1.20100000E+01  1.00800000E+00  1.00800000E+00  1.20100000E+01
  1.20100000E+01  1.20100000E+01  1.00800000E+00  1.20100000E+01  1.20100000E+01
  1.20100000E+01  1.00800000E+00  1.20100000E+01  1.00800000E+00  1.00800000E+00
  1.00800000E+00  1.20100000E+01  1.20100000E+01  1.00800000E+00  1.20100000E+01
  1.20100000E+01  1.00800000E+00  1.20100000E+01  1.00800000E+00  1.00800000E+00
  1.00800000E+00  1.20100000E+01  1.20100000E+01  1.20100000E+01  1.20100000E+01
  1.20100000E+01  1.00800000E+00  1.20100000E+01  1.20100000E+01  1.20100000E+01
  1.00800000E+00  1.20100000E+01  1.20100000E+01  1.00800000E+00  1.00800000E+00
  1.20100000E+01  1.20100000E+01  1.20100000E+01  1.00800000E+00  1.20100000E+01
  1.20100000E+01  1.20100000E+01  1.00800000E+00  1.20100000E+01  1.00800000E+00
  1.00800000E+00  1.00800000E+00  1.20100000E+01  1.20100000E+01  1.00800000E+00
  1.20100000E+01  1.20100000E+01  1.00800000E+00  1.20100000E+01  1.00800000E+00
  1.00800000E+00  1.00800000E+00  1.20100000E+01  1.20100000E+01  1.20100000E+01
  1.20100000E+01  1.20100000E+01  1.00800000E+00  1.20100000E+01  1.20100000E+01
  1.20100000E+01  1.00800000E+00  1.20100000E+01  1.20100000E+01  1.00800000E+00
  1.00800000E+00  1.20100000E+01  1.20100000E+01  1.20100000E+01  1.00800000E+00
  1.20100000E+01  1.20100000E+01  1.20100000E+01  1.00800000E+00  1.20100000E+01
  1.00800000E+00  1.00800000E+00  1.00800000E+00  1.20100000E+01  1.20100000E+01
  1.00800000E+00  1.20100000E+01  1.20100000E+01  1.00800000E+00  1.20100000E+01
  1.00800000E+00  1.00800000E+00  1.00800000E+00  1.20100000E+01  1.20100000E+01
  1.20100000E+01  1.20100000E+01  1.20100000E+01  1.00800000E+00  1.20100000E+01
  1.20100000E+01  1.20100000E+01  1.00800000E+00  1.20100000E+01  1.20100000E+01
  1.00800000E+00  1.00800000E+00  1.20100000E+01  1.20100000E+01  1.20100000E+01
  1.00800000E+00  1.20100000E+01  1.20100000E+01  1.20100000E+01  1.00800000E+00
  1.20100000E+01  1.00800000E+00  1.00800000E+00  1.00800000E+00  1.20100000E+01
  1.20100000E+01  1.00800000E+00  1.20100000E+01  1.20100000E+01  1.00800000E+00
  1.20100000E+01  1.00800000E+00  1.00800000E+00  1.00800000E+00  1.20100000E+01
  1.20100000E+01  1.20100000E+01  1.20100000E+01  1.20100000E+01  1.00800000E+00
  1.20100000E+01  1.20100000E+01  1.20100000E+01  1.00800000E+00  1.20100000E+01
  1.20100000E+01  1.00800000E+00  1.00800000E+00  1.20100000E+01  1.20100000E+01
  1.20100000E+01  1.00800000E+00  1.20100000E+01  1.20100000E+01  1.20100000E+01
  1.00800000E+00  1.20100000E+01  1.00800000E+00  1.00800000E+00  1.00800000E+00
  1.20100000E+01  1.20100000E+01  1.00800000E+00  1.20100000E+01  1.20100000E+01
  1.00800000E+00  1.20100000E+01  1.00800000E+00  1.00800000E+00  1.00800000E+00
  1.20100000E+01  1.20100000E+01  1.20100000E+01  1.20100000E+01  1.20100000E+01
  1.00800000E+00  1.20100000E+01  1.20100000E+01  1.20100000E+01  1.00800000E+00
  1.20100000E+01  1.20100000E+01  1.00800000E+00  1.00800000E+00  1.20100000E+01
  1.20100000E+01  1.20100000E+01  1.00800000E+00  1.20100000E+01  1.20100000E+01
  1.20100000E+01  1.00800000E+00  1.20100000E+01  1.00800000E+00  1.00800000E+00
  1.00800000E+00  1.20100000E+01  1.20100000E+01  1.00800000E+00  1.20100000E+01
  1.20100000E+01  1.00800000E+00  1.20100000E+01  1.00800000E+00  1.00800000E+00
  1.00800000E+00  1.20100000E+01  1.20100000E+01  1.20100000E+01  1.20100000E+01
  1.20100000E+01  1.00800000E+00  1.20100000E+01  1.20100000E+01  1.20100000E+01
  1.00800000E+00  1.20100000E+01  1.20100000E+01  1.00800000E+00  1.00800000E+00
  1.20100000E+01  1.20100000E+01  1.20100000E+01  1.00800000E+00  1.20100000E+01
  1.20100000E+01  1.20100000E+01  1.00800000E+00  1.20100000E+01  1.00800000E+00
  1.00800000E+00  1.00800000E+00  1.20100000E+01  1.20100000E+01  1.00800000E+00
  1.20100000E+01  1.20100000E+01  1.00800000E+00  1.20100000E+01  1.00800000E+00
  1.00800000E+00  1.00800000E+00  1.20100000E+01  1.20100000E+01  1.20100000E+01
  1.20100000E+01  1.20100000E+01  1.00800000E+00  1.20100000E+01  1.20100000E+01
  1.20100000E+01  1.00800000E+00  1.20100000E+01  1.20100000E+01  1.00800000E+00
  1.00800000E+00  1.20100000E+01  1.20100000E+01  1.20100000E+01  1.00800000E+00
  1.20100000E+01  1.20100000E+01  1.20100000E+01  1.00800000E+00  1.20100000E+01
  1.00800000E+00  1.00800000E+00  1.00800000E+00  1.20100000E+01  1.20100000E+01
  1.00800000E+00  1.20100000E+01  1.20100000E+01  1.00800000E+00  1.20100000E+01
  1.00800000E+00  1.00800000E+00  1.00800000E+00  1.20100000E+01  1.20100000E+01
  1.20100000E+01  1.20100000E+01  1.20100000E+01  1.00800000E+00  1.20100000E+01
  1.20100000E+01  1.20100000E+01  1.00800000E+00  1.20100000E+01  1.20100000E+01
  1.00800000E+00  1.00800000E+00  1.20100000E+01  1.20100000E+01  1.20100000E+01
  1.00800000E+00  1.20100000E+01  1.20100000E+01  1.20100000E+01  1.00800000E+00
  1.20100000E+01  1.00800000E+00  1.00800000E+00  1.00800000E+00  1.20100000E+01
  1.20100000E+01  1.00800000E+00  1.20100000E+01  1.20100000E+01  1.00800000E+00
  1.20100000E+01  1.00800000E+00  1.00800000E+00  1.00800000E+00  1.20100000E+01
  1.20100000E+01  1.20100000E+01  1.20100000E+01  1.20100000E+01  1.00800000E+00
  1.20100000E+01  1.20100000E+01  1.20100000E+01  1.00800000E+00  1.20100000E+01
  1.20100000E+01  1.00800000E+00  1.00800000E+00  1.20100000E+01  1.20100000E+01
  1.20100000E+01  1.00800000E+00  1.20100000E+01  1.20100000E+01  1.20100000E+01
  1.00800000E+00  1.20100000E+01  1.00800000E+00  1.00800000E+00  1.00800000E+00
  1.20100000E+01  1.20100000E+01  1.00800000E+00  1.20100000E+01  1.20100000E+01
  1.00800000E+00  1.20100000E+01  1.00800000E+00  1.00800000E+00  1.00800000E+00
  1.20100000E+01  1.20100000E+01  1.20100000E+01  1.20100000E+01  1.20100000E+01
  1.00800000E+00  1.20100000E+01  1.20100000E+01  1.20100000E+01  1.00800000E+00
  1.20100000E+01  1.20100000E+01  1.00800000E+00  1.00800000E+00  1.20100000E+01
  1.20100000E+01  1.20100000E+01  1.00800000E+00  1.20100000E+01  1.20100000E+01
  1.20100000E+01  1.00800000E+00  1.20100000E+01  1.00800000E+00  1.00800000E+00
  1.00800000E+00  1.20100000E+01  1.20100000E+01  1.00800000E+00  1.20100000E+01
  1.20100000E+01  1.00800000E+00  1.20100000E+01  1.00800000E+00  1.00800000E+00
  1.00800000E+00  1.20100000E+01  1.20100000E+01  1.20100000E+01  1.20100000E+01
  1.20100000E+01  1.00800000E+00  1.20100000E+01  1.20100000E+01  1.20100000E+01
  1.00800000E+00  1.20100000E+01  1.20100000E+01  1.00800000E+00  1.00800000E+00
  1.20100000E+01  1.20100000E+01  1.20100000E+01  1.00800000E+00  1.20100000E+01
  1.20100000E+01  1.20100000E+01  1.00800000E+00  1.20100000E+01  1.00800000E+00
  1.00800000E+00  1.00800000E+00  1.20100000E+01  1.20100000E+01  1.00800000E+00
  1.20100000E+01  1.20100000E+01  1.00800000E+00  1.20100000E+01  1.00800000E+00
  1.00800000E+00  1.00800000E+00  1.20100000E+01  1.20100000E+01  1.20100000E+01
  1.20100000E+01  1.20100000E+01  1.00800000E+00  1.20100000E+01  1.20100000E+01
  1.20100000E+01  1.00800000E+00  1.20100000E+01  1.20100000E+01  1.00800000E+00
  1.00800000E+00  1.20100000E+01  1.20100000E+01  1.20100000E+01  1.00800000E+00
  1.20100000E+01  1.20100000E+01  1.20100000E+01  1.00800000E+00  1.20100000E+01
  1.00800000E+00  1.00800000E+00  1.00800000E+00  1.20100000E+01  1.20100000E+01
  1.00800000E+00  1.20100000E+01  1.20100000E+01  1.00800000E+00  1.20100000E+01
  1.00800000E+00  1.00800000E+00  1.00800000E+00  1.20100000E+01  1.20100000E+01
  1.20100000E+01  1.20100000E+01  1.20100000E+01  1.00800000E+00  1.20100000E+01
  1.20100000E+01  1.20100000E+01  1.00800000E+00  1.20100000E+01  1.20100000E+01
  1.00800000E+00  1.00800000E+00  1.20100000E+01  1.20100000E+01  1.20100000E+01
  1.00800000E+00  1.20100000E+01  1.20100000E+01  1.20100000E+01  1.00800000E+00
  1.20100000E+01  1.00800000E+00  1.00800000E+00  1.00800000E+00  1.20100000E+01
  1.20100000E+01  1.00800000E+00  1.20100000E+01  1.20100000E+01  1.00800000E+00
  1.20100000E+01  1.00800000E+00  1.00800000E+00  1.00800000E+00  1.20100000E+01
  1.20100000E+01  1.20100000E+01  1.20100000E+01  1.20100000E+01  1.00800000E+00
  1.20100000E+01  1.20100000E+01  1.20100000E+01  1.00800000E+00  1.20100000E+01
  1.20100000E+01  1.00800000E+00  1.00800000E+00  1.20100000E+01  1.20100000E+01
  1.20100000E+01  1.00800000E+00  1.20100000E+01  1.20100000E+01  1.20100000E+01
  1.00800000E+00  1.20100000E+01  1.00800000E+00  1.00800000E+00  1.00800000E+00
  1.20100000E+01  1.20100000E+01  1.00800000E+00  1.20100000E+01  1.20100000E+01
  1.00800000E+00  1.20100000E+01  1.00800000E+00  1.00800000E+00  1.00800000E+00
  1.20100000E+01  1.20100000E+01  1.20100000E+01  1.20100000E+01  1.20100000E+01
  1.00800000E+00  1.20100000E+01  1.20100000E+01  1.20100000E+01  1.00800000E+00
  1.20100000E+01  1.20100000E+01  1.00800000E+00  1.00800000E+00  1.20100000E+01
  1.20100000E+01  1.20100000E+01  1.00800000E+00  1.20100000E+01  1.20100000E+01
  1.20100000E+01  1.00800000E+00  1.20100000E+01  1.00800000E+00  1.00800000E+00
  1.00800000E+00  1.20100000E+01  1.20100000E+01  1.00800000E+00  1.20100000E+01
  1.20100000E+01  1.00800000E+00  1.20100000E+01  1.00800000E+00  1.00800000E+00
  1.00800000E+00  1.20100000E+01  1.20100000E+01  1.20100000E+01  1.20100000E+01
  1.20100000E+01  1.00800000E+00  1.20100000E+01  1.20100000E+01  1.20100000E+01
  1.00800000E+00  1.20100000E+01  1.20100000E+01  1.00800000E+00  1.00800000E+00
  1.20100000E+01  1.20100000E+01  1.20100000E+01  1.00800000E+00  1.20100000E+01
  1.20100000E+01  1.20100000E+01  1.00800000E+00  1.20100000E+01  1.00800000E+00
  1.00800000E+00  1.00800000E+00  1.20100000E+01  1.20100000E+01  1.00800000E+00
  1.20100000E+01  1.20100000E+01  1.00800000E+00  1.20100000E+01  1.00800000E+00
  1.00800000E+00  1.00800000E+00  1.20100000E+01  1.20100000E+01  1.20100000E+01
  1.20100000E+01  1.20100000E+01  1.00800000E+00  1.20100000E+01  1.20100000E+01
  1.20100000E+01  1.00800000E+00  1.20100000E+01  1.20100000E+01  1.00800000E+00
  1.00800000E+00  1.20100000E+01  1.20100000E+01  1.20100000E+01  1.00800000E+00
  1.20100000E+01  1.20100000E+01  1.20100000E+01  1.00800000E+00  1.20100000E+01
  1.00800000E+00  1.00800000E+00  1.00800000E+00  1.20100000E+01  1.20100000E+01
  1.00800000E+00  1.20100000E+01  1.20100000E+01  1.00800000E+00  1.20100000E+01
  1.00800000E+00  1.00800000E+00  1.00800000E+00  1.20100000E+01  1.20100000E+01
  1.20100000E+01  1.20100000E+01  1.20100000E+01  1.00800000E+00  1.20100000E+01
  1.20100000E+01  1.20100000E+01  1.00800000E+00  1.20100000E+01  1.20100000E+01
  1.00800000E+00  1.00800000E+00  1.20100000E+01  1.20100000E+01  1.20100000E+01
  1.00800000E+00  1.20100000E+01  1.20100000E+01  1.20100000E+01  1.00800000E+00
  1.20100000E+01  1.00800000E+00  1.00800000E+00  1.00800000E+00  1.20100000E+01
  1.20100000E+01  1.00800000E+00  1.20100000E+01  1.20100000E+01  1.00800000E+00
  1.20100000E+01  1.00800000E+00  1.00800000E+00  1.00800000E+00  1.20100000E+01
  1.20100000E+01  1.20100000E+01  1.20100000E+01  1.20100000E+01  1.00800000E+00
  1.20100000E+01  1.20100000E+01  1.20100000E+01  1.00800000E+00  1.20100000E+01
  1.20100000E+01  1.00800000E+00  1.00800000E+00  1.20100000E+01  1.20100000E+01
  1.20100000E+01  1.00800000E+00  1.20100000E+01  1.20100000E+01  1.20100000E+01
  1.00800000E+00  1.20100000E+01  1.00800000E+00  1.00800000E+00  1.00800000E+00
  1.20100000E+01  1.20100000E+01  1.00800000E+00  1.20100000E+01  1.20100000E+01
  1.00800000E+00  1.20100000E+01  1.00800000E+00  1.00800000E+00  1.00800000E+00
  1.20100000E+01  1.20100000E+01  1.20100000E+01  1.20100000E+01  1.20100000E+01
  1.00800000E+00  1.20100000E+01  1.20100000E+01  1.20100000E+01  1.00800000E+00
  1.20100000E+01  1.20100000E+01  1.00800000E+00  1.00800000E+00  1.20100000E+01
  1.20100000E+01  1.20100000E+01  1.00800000E+00  1.20100000E+01  1.20100000E+01
  1.20100000E+01  1.00800000E+00  1.20100000E+01  1.00800000E+00  1.00800000E+00
  1.00800000E+00  1.20100000E+01  1.20100000E+01  1.00800000E+00  1.20100000E+01
  1.20100000E+01  1.00800000E+00  1.20100000E+01  1.00800000E+00  1.00800000E+00
  1.00800000E+00  1.20100000E+01  1.20100000E+01  1.20100000E+01  1.20100000E+01
  1.20100000E+01  1.00800000E+00  1.20100000E+01  1.20100000E+01  1.20100000E+01
  1.00800000E+00  1.20100000E+01  1.20100000E+01  1.00800000E+00  1.00800000E+00
  1.20100000E+01  1.20100000E+01  1.20100000E+01  1.00800000E+00  1.20100000E+01
  1.20100000E+01  1.20100000E+01  1.00800000E+00  1.20100000E+01  1.00800000E+00
  1.00800000E+00  1.00800000E+00  1.20100000E+01  1.20100000E+01  1.00800000E+00
  1.20100000E+01  1.20100000E+01  1.00800000E+00  1.20100000E+01  1.00800000E+00
  1.00800000E+00  1.00800000E+00  1.20100000E+01  1.20100000E+01  1.20100000E+01
  1.20100000E+01  1.20100000E+01  1.00800000E+00  1.20100000E+01  1.20100000E+01
  1.20100000E+01  1.00800000E+00  1.20100000E+01  1.20100000E+01  1.00800000E+00
  1.00800000E+00  1.20100000E+01  1.20100000E+01  1.20100000E+01  1.00800000E+00
  1.20100000E+01  1.20100000E+01  1.20100000E+01  1.00800000E+00  1.20100000E+01
  1.00800000E+00  1.00800000E+00  1.00800000E+00  1.20100000E+01  1.20100000E+01
  1.00800000E+00  1.20100000E+01  1.20100000E+01  1.00800000E+00  1.20100000E+01
  1.00800000E+00  1.00800000E+00  1.00800000E+00  1.20100000E+01  1.20100000E+01
  1.20100000E+01  1.20100000E+01  1.20100000E+01  1.00800000E+00  1.20100000E+01
  1.20100000E+01  1.20100000E+01  1.00800000E+00  1.20100000E+01  1.20100000E+01
  1.00800000E+00  1.00800000E+00  1.20100000E+01  1.20100000E+01  1.20100000E+01
  1.00800000E+00  1.20100000E+01  1.20100000E+01  1.20100000E+01  1.00800000E+00
  1.20100000E+01  1.00800000E+00  1.00800000E+00  1.00800000E+00  1.20100000E+01
  1.20100000E+01  1.00800000E+00  1.20100000E+01  1.20100000E+01  1.00800000E+00
  1.20100000E+01  1.00800000E+00  1.00800000E+00  1.00800000E+00  1.20100000E+01
  1.20100000E+01  1.20100000E+01  1.20100000E+01  1.20100000E+01  1.00800000E+00
  1.20100000E+01  1.20100000E+01  1.20100000E+01  1.00800000E+00  1.20100000E+01
  1.20100000E+01  1.00800000E+00  1.00800000E+00  1.20100000E+01  1.20100000E+01
  1.20100000E+01  1.00800000E+00  1.20100000E+01  1.20100000E+01  1.20100000E+01
  1.00800000E+00  1.20100000E+01  1.00800000E+00  1.00800000E+00  1.00800000E+00
  1.20100000E+01  1.20100000E+01  1.00800000E+00  1.20100000E+01  1.20100000E+01
  1.00800000E+00  1.20100000E+01  1.00800000E+00  1.00800000E+00  1.00800000E+00
  1.20100000E+01  1.20100000E+01  1.20100000E+01  1.20100000E+01  1.20100000E+01
  1.00800000E+00  1.20100000E+01  1.20100000E+01  1.20100000E+01  1.00800000E+00
  1.20100000E+01  1.20100000E+01  1.00800000E+00  1.00800000E+00  1.20100000E+01
  1.20100000E+01  1.20100000E+01  1.00800000E+00  1.20100000E+01  1.20100000E+01
  1.20100000E+01  1.00800000E+00  1.20100000E+01  1.00800000E+00  1.00800000E+00
  1.00800000E+00  1.20100000E+01  1.20100000E+01  1.00800000E+00  1.20100000E+01
  1.20100000E+01  1.00800000E+00  1.20100000E+01  1.00800000E+00  1.00800000E+00
  1.00800000E+00  1.20100000E+01  1.20100000E+01  1.20100000E+01  1.20100000E+01
  1.20100000E+01  1.00800000E+00  1.20100000E+01  1.20100000E+01  1.20100000E+01
  1.00800000E+00  1.20100000E+01  1.20100000E+01  1.00800000E+00  1.00800000E+00
  1.20100000E+01  1.20100000E+01  1.20100000E+01  1.00800000E+00  1.20100000E+01
  1.20100000E+01  1.20100000E+01  1.00800000E+00  1.20100000E+01  1.00800000E+00
  1.00800000E+00  1.00800000E+00  1.20100000E+01  1.20100000E+01  1.00800000E+00
  1.20100000E+01  1.20100000E+01  1.00800000E+00  1.20100000E+01  1.00800000E+00
  1.00800000E+00  1.00800000E+00  1.20100000E+01  1.20100000E+01  1.20100000E+01
  1.20100000E+01  1.20100000E+01  1.00800000E+00  1.20100000E+01  1.20100000E+01
  1.20100000E+01  1.00800000E+00  1.20100000E+01  1.20100000E+01  1.00800000E+00
  1.00800000E+00  1.20100000E+01  1.20100000E+01  1.20100000E+01  1.00800000E+00
  1.20100000E+01  1.20100000E+01  1.20100000E+01  1.00800000E+00  1.20100000E+01
  1.00800000E+00  1.00800000E+00  1.00800000E+00  1.20100000E+01  1.20100000E+01
  1.00800000E+00  1.20100000E+01  1.20100000E+01  1.00800000E+00  1.20100000E+01
  1.00800000E+00  1.00800000E+00  1.00800000E+00  1.20100000E+01  1.20100000E+01
  1.20100000E+01  1.20100000E+01  1.20100000E+01  1.00800000E+00  1.20100000E+01
  1.20100000E+01  1.20100000E+01  1.00800000E+00  1.20100000E+01  1.20100000E+01
  1.00800000E+00  1.00800000E+00  1.20100000E+01  1.20100000E+01  1.20100000E+01
  1.00800000E+00  1.20100000E+01  1.20100000E+01  1.20100000E+01  1.00800000E+00
  1.20100000E+01  1.00800000E+00  1.00800000E+00  1.00800000E+00  1.20100000E+01
  1.20100000E+01  1.00800000E+00  1.20100000E+01  1.20100000E+01  1.00800000E+00
  1.20100000E+01  1.00800000E+00  1.00800000E+00  1.00800000E+00  1.20100000E+01
  1.20100000E+01  1.20100000E+01  1.20100000E+01  1.20100000E+01  1.00800000E+00
  1.20100000E+01  1.20100000E+01  1.20100000E+01  1.00800000E+00  1.20100000E+01
  1.20100000E+01  1.00800000E+00  1.00800000E+00  1.20100000E+01  1.20100000E+01
  1.20100000E+01  1.00800000E+00  1.20100000E+01  1.20100000E+01  1.20100000E+01
  1.00800000E+00  1.20100000E+01  1.00800000E+00  1.00800000E+00  1.00800000E+00
  1.20100000E+01  1.20100000E+01  1.00800000E+00  1.20100000E+01  1.20100000E+01
  1.00800000E+00  1.20100000E+01  1.00800000E+00  1.00800000E+00  1.00800000E+00
  1.20100000E+01  1.20100000E+01  1.20100000E+01  1.20100000E+01  1.20100000E+01
  1.00800000E+00  1.20100000E+01  1.20100000E+01  1.20100000E+01  1.00800000E+00
  1.20100000E+01  1.20100000E+01  1.00800000E+00  1.00800000E+00  1.20100000E+01
  1.20100000E+01  1.20100000E+01  1.00800000E+00  1.20100000E+01  1.20100000E+01
  1.20100000E+01  1.00800000E+00  1.20100000E+01  1.00800000E+00  1.00800000E+00
  1.00800000E+00  1.20100000E+01  1.20100000E+01  1.00800000E+00  1.20100000E+01
  1.20100000E+01  1.00800000E+00  1.20100000E+01  1.00800000E+00  1.00800000E+00
  1.00800000E+00  1.20100000E+01  1.20100000E+01  1.20100000E+01  1.20100000E+01
  1.20100000E+01  1.00800000E+00  1.20100000E+01  1.20100000E+01  1.20100000E+01
  1.00800000E+00  1.20100000E+01  1.20100000E+01  1.00800000E+00  1.00800000E+00
  1.20100000E+01  1.20100000E+01  1.20100000E+01  1.00800000E+00  1.20100000E+01
  1.20100000E+01  1.20100000E+01  1.00800000E+00  1.20100000E+01  1.00800000E+00
  1.00800000E+00  1.00800000E+00  1.20100000E+01  1.20100000E+01  1.00800000E+00
  1.20100000E+01  1.20100000E+01  1.00800000E+00  1.20100000E+01  1.00800000E+00
  1.00800000E+00  1.00800000E+00  1.20100000E+01  1.20100000E+01  1.20100000E+01
  1.20100000E+01  1.20100000E+01  1.00800000E+00  1.20100000E+01  1.20100000E+01
  1.20100000E+01  1.00800000E+00  1.20100000E+01  1.20100000E+01  1.00800000E+00
  1.00800000E+00  1.20100000E+01  1.20100000E+01  1.20100000E+01  1.00800000E+00
  1.20100000E+01  1.20100000E+01  1.20100000E+01  1.00800000E+00  1.20100000E+01
  1.00800000E+00  1.00800000E+00  1.00800000E+00  1.20100000E+01  1.20100000E+01
  1.00800000E+00  1.20100000E+01  1.20100000E+01  1.00800000E+00  1.20100000E+01
  1.00800000E+00  1.00800000E+00  1.00800000E+00  1.20100000E+01  1.20100000E+01
  1.20100000E+01  1.20100000E+01  1.20100000E+01  1.00800000E+00  1.20100000E+01
  1.20100000E+01  1.20100000E+01  1.00800000E+00  1.20100000E+01  1.20100000E+01
  1.00800000E+00  1.00800000E+00  1.20100000E+01  1.20100000E+01  1.20100000E+01
  1.00800000E+00  1.20100000E+01  1.20100000E+01  1.20100000E+01  1.00800000E+00
  1.20100000E+01  1.00800000E+00  1.00800000E+00  1.00800000E+00  1.20100000E+01
  1.20100000E+01  1.00800000E+00  1.20100000E+01  1.20100000E+01  1.00800000E+00
  1.20100000E+01  1.00800000E+00  1.00800000E+00  1.00800000E+00  1.20100000E+01
  1.20100000E+01  1.20100000E+01  1.20100000E+01  1.20100000E+01  1.00800000E+00
  1.20100000E+01  1.20100000E+01  1.20100000E+01  1.00800000E+00  1.20100000E+01
  1.20100000E+01  1.00800000E+00  1.00800000E+00  1.20100000E+01  1.20100000E+01
  1.20100000E+01  1.00800000E+00  1.20100000E+01  1.20100000E+01  1.20100000E+01
  1.00800000E+00  1.20100000E+01  1.00800000E+00  1.00800000E+00  1.00800000E+00
  1.20100000E+01  1.20100000E+01  1.00800000E+00  1.20100000E+01  1.20100000E+01
  1.00800000E+00  1.20100000E+01  1.00800000E+00  1.00800000E+00  1.00800000E+00
  1.20100000E+01  1.20100000E+01  1.20100000E+01  1.20100000E+01  1.20100000E+01
  1.00800000E+00  1.20100000E+01  1.20100000E+01  1.20100000E+01  1.00800000E+00
  1.20100000E+01  1.20100000E+01  1.00800000E+00  1.00800000E+00  1.20100000E+01
  1.20100000E+01  1.20100000E+01  1.00800000E+00  1.20100000E+01  1.20100000E+01
  1.20100000E+01  1.00800000E+00  1.20100000E+01  1.00800000E+00  1.00800000E+00
  1.00800000E+00  1.20100000E+01  1.20100000E+01  1.00800000E+00  1.20100000E+01
  1.20100000E+01  1.00800000E+00  1.20100000E+01  1.00800000E+00  1.00800000E+00
  1.00800000E+00  1.20100000E+01  1.20100000E+01  1.20100000E+01  1.20100000E+01
  1.20100000E+01  1.00800000E+00  1.20100000E+01  1.20100000E+01  1.20100000E+01
  1.00800000E+00  1.20100000E+01  1.20100000E+01  1.00800000E+00  1.00800000E+00
  1.20100000E+01  1.20100000E+01  1.20100000E+01  1.00800000E+00  1.20100000E+01
  1.20100000E+01  1.20100000E+01  1.00800000E+00  1.20100000E+01  1.00800000E+00
  1.00800000E+00  1.00800000E+00  1.20100000E+01  1.20100000E+01  1.00800000E+00
  1.20100000E+01  1.20100000E+01  1.00800000E+00  1.20100000E+01  1.00800000E+00
  1.00800000E+00  1.00800000E+00  1.20100000E+01  1.20100000E+01  1.20100000E+01
  1.20100000E+01  1.20100000E+01  1.00800000E+00  1.20100000E+01  1.20100000E+01
  1.20100000E+01  1.00800000E+00  1.20100000E+01  1.20100000E+01  1.00800000E+00
  1.00800000E+00  1.20100000E+01  1.20100000E+01  1.20100000E+01  1.00800000E+00
  1.20100000E+01  1.20100000E+01  1.20100000E+01  1.00800000E+00  1.20100000E+01
  1.00800000E+00  1.00800000E+00  1.00800000E+00  1.20100000E+01  1.20100000E+01
  1.00800000E+00  1.20100000E+01  1.20100000E+01  1.00800000E+00  1.20100000E+01
  1.00800000E+00  1.00800000E+00  1.00800000E+00  1.20100000E+01  1.20100000E+01
  1.20100000E+01  1.20100000E+01  1.20100000E+01  1.00800000E+00  1.20100000E+01
  1.20100000E+01  1.20100000E+01  1.00800000E+00  1.20100000E+01  1.20100000E+01
  1.00800000E+00  1.00800000E+00  1.20100000E+01  1.20100000E+01  1.20100000E+01
  1.00800000E+00  1.20100000E+01  1.20100000E+01  1.20100000E+01  1.00800000E+00
  1.20100000E+01  1.00800000E+00  1.00800000E+00  1.00800000E+00  1.20100000E+01
  1.20100000E+01  1.00800000E+00  1.20100000E+01  1.20100000E+01  1.00800000E+00
  1.20100000E+01  1.00800000E+00  1.00800000E+00  1.00800000E+00  1.20100000E+01
  1.20100000E+01  1.20100000E+01  1.20100000E+01  1.20100000E+01  1.00800000E+00
  1.20100000E+01  1.20100000E+01  1.20100000E+01  1.00800000E+00  1.20100000E+01
  1.20100000E+01  1.00800000E+00  1.00800000E+00  1.20100000E+01  1.20100000E+01
  1.20100000E+01  1.00800000E+00  1.20100000E+01  1.20100000E+01  1.20100000E+01
  1.00800000E+00  1.20100000E+01  1.00800000E+00  1.00800000E+00  1.00800000E+00
  1.20100000E+01  1.20100000E+01  1.00800000E+00  1.20100000E+01  1.20100000E+01
  1.00800000E+00  1.20100000E+01  1.00800000E+00  1.00800000E+00  1.00800000E+00
%FLAG ATOM_TYPE_INDEX                                                           
%FORMAT(10I8)                                                                   
       1       1       1       1       1       2       1       1       1       2
       1       1       2       2       1       1       1       2       1       1
       1       2       1       2       2       2       1       1       2       1
       1       2       1       2       2       2       1       1       1       1
       1       2       1       1       1       2       1       1       2       2
       1       1       1       2       1       1       1       2       1       2
       2       2       1       1       2       1       1       2       1       2
       2       2       1       1       1       1       1       2       1       1
       1       2       1       1       2       2       1       1       1       2
       1       1       1       2       1       2       2       2       1       1
       2       1       1       2       1       2       2       2       1       1
       1       1       1       2       1       1       1       2       1       1
       2       2       1       1       1       2       1       1       1       2
       1       2       2       2       1       1       2       1       1       2
       1       2       2       2       1       1       1       1       1       2
       1       1       1       2       1       1       2       2       1       1
       1       2       1       1       1       2       1       2       2       2
       1       1       2       1       1       2       1       2       2       2
       1       1       1       1       1       2       1       1       1       2
       1       1       2       2       1       1       1       2       1       1
       1       2       1       2       2       2       1       1       2       1
       1       2       1       2       2       2       1       1       1       1
       1       2       1       1       1       2       1       1       2       2
       1       1       1       2       1       1       1       2       1       2
       2       2       1       1       2       1       1       2       1       2
       2       2       1       1       1       1       1       2       1       1
       1       2       1       1       2       2       1       1       1       2
       1       1       1       2       1       2       2       2       1       1
       2       1       1       2       1       2       2       2       1       1
       1       1       1       2       1       1       1       2       1       1
       2       2       1       1       1       2       1       1       1       2
       1       2       2       2       1       1       2       1       1       2
       1       2       2       2       1       1       1       1       1       2
       1       1       1       2       1       1       2       2       1       1
       1       2       1       1       1       2       1       2       2       2
       1       1       2       1       1       2       1       2       2       2
       1       1       1       1       1       2       1       1       1       2
       1       1       2       2       1       1       1       2       1       1
       1       2       1       2       2       2       1       1       2       1
       1       2       1       2       2       2       1       1       1       1
       1       2       1       1       1       2       1       1       2       2
       1       1       1       2       1       1       1       2       1       2
       2       2       1       1       2       1       1       2       1       2
       2       2       1       1       1       1       1       2       1       1
       1       2       1       1       2       2       1       1       1       2
       1       1       1       2       1       2       2       2       1       1
       2       1       1       2       1       2       2       2       1       1
       1       1       1       2       1       1       1       2       1       1
       2       2       1       1       1       2       1       1       1       2
       1       2       2       2       1       1       2       1       1       2
       1       2       2       2       1       1       1       1       1       2
       1       1       1       2       1       1       2       2       1       1
       1       2       1       1       1       2       1       2       2       2
       1       1       2       1       1       2       1       2       2       2
       1       1       1       1       1       2       1       1       1       2
       1       1       2       2       1       1       1       2       1       1
       1       2       1       2       2       2       1       1       2       1
       1       2       1       2       2       2       1       1       1       1
       1       2       1       1       1       2       1       1       2       2
       1       1       1       2       1       1       1       2       1       2
       2       2       1       1       2       1       1       2       1       2
       2       2       1       1       1       1       1       2       1       1
       1       2       1       1       2       2       1       1       1       2
       1       1       1       2       1       2       2       2       1       1
       2       1       1       2       1       2       2       2       1       1
       1       1       1       2       1       1       1       2       1       1
       2       2       1       1       1       2       1       1       1       2
       1       2       2       2       1       1       2       1       1       2
       1       2       2       2       1       1       1       1       1       2
       1       1       1       2       1       1       2       2       1       1
       1       2       1       1       1       2       1       2       2       2
       1       1       2       1       1       2       1       2       2       2
       1       1       1       1       1       2       1       1       1       2
       1       1       2       2       1       1       1       2       1       1
       1       2       1       2       2       2       1       1       2       1
       1       2       1       2       2       2       1       1       1       1
       1       2       1       1       1       2       1       1       2       2
       1       1       1       2       1       1       1       2       1       2
       2       2       1       1       2       1       1       2       1       2
       2       2       1       1       1       1       1       2       1       1
       1       2       1       1       2       2       1       1       1       2
       1       1       1       2       1       2       2       2       1       1
       2       1       1       2       1       2       2       2       1       1
       1       1       1       2       1       1       1       2       1       1
       2       2       1       1       1       2       1       1       1       2
       1       2       2       2       1       1       2       1       1       2
       1       2       2       2       1       1       1       1       1       2
       1       1       1       2       1       1       2       2       1       1
       1       2       1       1       1       2       1       2       2       2
       1       1       2       1       1       2       1       2       2       2
       1       1       1       1       1       2       1       1       1       2
       1       1       2       2       1       1       1       2       1       1
       1       2       1       2       2       2       1       1       2       1
       1       2       1       2       2       2       1       1       1       1
       1       2       1       1       1       2       1       1       2       2
       1       1       1       2       1       1       1       2       1       2
       2       2       1       1       2       1       1       2       1       2
       2       2       1       1       1       1       1       2       1       1
       1       2       1       1       2       2       1       1       1       2
       1       1       1       2       1       2       2       2       1       1
       2       1       1       2       1       2       2       2       1       1
       1       1       1       2       1       1       1       2       1       1
       2       2       1       1       1       2       1       1       1       2
       1       2       2       2       1       1       2       1       1       2
       1       2       2       2       1       1       1       1       1       2
       1       1       1       2       1       1       2       2       1       1
       1       2       1       1       1       2       1       2       2       2
       1       1       2       1       1       2       1       2       2       2
       1       1       1       1       1       2       1       1       1       2
       1       1       2       2       1       1       1       2       1       1
       1       2       1       2       2       2       1       1       2       1
       1       2       1       2       2       2       1       1       1       1
       1       2       1       1       1       2       1       1       2       2
       1       1       1       2       1       1       1       2       1       2
       2       2       1       1       2       1       1       2       1       2
       2       2       1       1       1       1       1       2       1       1
       1       2       1       1       2       2       1       1       1       2
       1       1       1       2       1       2       2       2       1       1
       2       1       1       2       1       2       2       2       1       1
       1       1       1       2       1       1       1       2       1       1
       2       2       1       1       1       2       1       1       1       2
       1       2       2       2       1       1       2       1       1       2
       1       2       2       2       1       1       1       1       1       2
       1       1       1       2       1       1       2       2       1       1
       1       2       1       1       1       2       1       2       2       2
       1       1       2       1       1       2       1       2       2       2
       1       1       1       1       1       2       1       1       1       2
       1       1       2       2       1       1       1       2       1       1
       1       2       1       2       2       2       1       1       2       1
       1       2       1       2       2       2       1       1       1       1
       1       2       1       1       1       2       1       1       2       2
       1       1       1       2       1       1       1       2       1       2
       2       2       1       1       2       1       1       2       1       2
       2       2       1       1       1       1       1       2       1       1
       1       2       1       1       2       2       1       1       1       2
       1       1       1       2       1       2       2       2       1       1
       2       1       1       2       1       2       2       2       1       1
       1       1       1       2       1       1       1       2       1       1
       2       2       1       1       1       2       1       1       1       2
       1       2       2       2       1       1       2       1       1       2
       1       2       2       2       1       1       1       1       1       2
       1       1       1       2       1       1       2       2       1       1
       1       2       1       1       1       2       1       2       2       2
       1       1       2       1       1       2       1       2       2       2
       1       1       1       1       1       2       1       1       1       2
       1       1       2       2       1       1       1       2       1       1
       1       2       1       2       2       2       1       1       2       1
       1       2       1       2       2       2       1       1       1       1
       1       2       1       1       1       2       1       1       2       2
       1       1       1       2       1       1       1       2       1       2
       2       2       1       1       2       1       1       2       1       2
       2       2       1       1       1       1       1       2       1       1
       1       2       1       1       2       2       1       1       1       2
       1       1       1       2       1       2       2       2       1       1
       2       1       1       2       1       2       2       2       1       1
       1       1       1       2       1       1       1       2       1       1
       2       2       1       1       1       2       1       1       1       2
       1       2       2       2       1       1       2       1       1       2
       1       2       2       2       1       1       1       1       1       2
       1       1       1       2       1       1       2       2       1       1
       1       2       1       1       1       2       1       2       2       2
       1       1       2       1       1       2       1       2       2       2
       1       1       1       1       1       2       1       1       1       2
       1       1       2       2       1       1       1       2       1       1
       1       2       1       2       2       2       1       1       2       1
       1       2       1       2       2       2       1       1       1       1
       1       2       1       1       1       2       1       1       2       2
       1       1       1       2       1       1       1       2       1       2
       2       2       1       1       2       1       1       2       1       2
       2       2       1       1       1       1       1       2       1       1
       1       2       1       1       2       2       1       1       1       2
       1       1       1       2       1       2       2       2       1       1
       2       1       1       2       1       2       2       2       1       1
       1       1       1       2       1       1       1       2       1       1
       2       2       1       1       1       2       1       1       1       2
       1       2       2       2       1       1       2       1       1       2
       1       2       2       2       1       1       1       1       1       2
       1       1       1       2       1       1       2       2       1       1
       1       2       1       1       1       2       1       2       2       2
       1       1       2       1       1       2       1       2       2       2
       1       1       1       1       1       2       1       1       1       2
       1       1       2       2       1       1       1       2       1       1
       1       2       1       2       2       2       1       1       2       1
       1       2       1       2       2       2       1       1       1       1
       1       2       1       1       1       2       1       1       2       2
       1       1       1       2       1       1       1       2       1       2
       2       2       1       1       2       1       1       2       1       2
       2       2       1       1       1       1       1       2       1       1
       1       2       1       1       2       2       1       1       1       2
       1       1       1       2       1       2       2       2       1       1
       2       1       1       2       1       2       2       2       1       1
       1       1       1       2       1       1       1       2       1       1
       2       2       1       1       1       2       1       1       1       2
       1       2       2       2       1       1       2       1       1       2
       1       2       2       2       1       1       1       1       1       2
       1       1       1       2       1       1       2       2       1       1
       1       2       1       1       1       2       1       2       2       2
       1       1       2       1       1       2       1       2       2       2
       1       1       1       1       1       2       1       1       1       2
       1       1       2       2       1       1       1       2       1       1
       1       2       1       2       2       2       1       1       2       1
       1       2       1       2       2       2       1       1       1       1
       1       2       1       1       1       2       1       1       2       2
       1       1       1       2       1       1       1       2       1       2
       2       2       1       1       2       1       1       2       1       2
       2       2       1       1       1       1       1       2       1       1
       1       2       1       1       2       2       1       1       1       2
       1       1       1       2       1       2       2       2       1       1
       2       1       1       2       1       2       2       2       1       1
       1       1       1       2       1       1       1       2       1       1
       2       2       1       1       1       2       1       1       1       2
       1       2       2       2       1       1       2       1       1       2
       1       2       2       2       1       1       1       1       1       2
       1       1       1       2       1       1       2       2       1       1
       1       2       1       1       1       2       1       2       2       2
       1       1       2       1       1       2       1       2       2       2
       1       1       1       1       1       2       1       1       1       2
       1       1       2       2       1       1       1       2       1       1
       1       2       1       2       2       2       1       1       2       1
       1       2       1       2       2       2       1       1       1       1
       1       2       1       1       1       2       1       1       2       2
       1       1       1       2       1       1       1       2       1       2
       2       2       1       1       2       1       1       2       1       2
       2       2       1       1       1       1       1       2       1       1
       1       2       1       1       2       2       1       1       1       2
       1       1       1       2       1       2       2       2       1       1
       2       1       1       2       1       2       2       2       1       1
       1       1       1       2       1       1       1       2       1       1
       2       2       1       1       1       2       1       1       1       2
       1       2       2       2       1       1       2       1       1       2
       1       2       2       2       1       1       1       1       1       2
       1       1       1       2       1       1       2       2       1       1
       1       2       1       1       1       2       1       2       2       2
       1       1       2       1       1       2       1       2       2       2
       1       1       1       1       1       2       1       1       1       2
       1       1       2       2       1       1       1       2       1       1
       1       2       1       2       2       2       1       1       2       1
       1       2       1       2       2       2       1       1       1       1
       1       2       1       1       1       2       1       1       2       2
       1       1       1       2       1       1       1       2       1       2
       2       2       1       1       2       1       1       2       1       2
       2       2       1       1       1       1       1       2       1       1
       1       2       1       1       2       2       1       1       1       2
       1       1       1       2       1       2       2       2       1       1
       2       1       1       2       1       2       2       2       1       1
       1       1       1       2       1       1       1       2       1       1
       2       2       1       1       1       2       1       1       1       2
       1       2       2       2       1       1       2       1       1       2
       1       2       2       2       1       1       1       1       1       2
       1       1       1       2       1       1       2       2       1       1
       1       2       1       1       1       2       1       2       2       2
       1       1       2       1       1       2       1       2       2       2
       1       1       1       1       1       2       1       1       1       2
       1       1       2       2       1       1       1       2       1       1
       1       2       1       2       2       2       1       1       2       1
       1       2       1       2       2       2       1       1       1       1
       1       2       1       1       1       2       1       1       2       2
       1       1       1       2       1       1       1       2       1       2
       2       2       1       1       2       1       1       2       1       2
       2       2       1       1       1       1       1       2       1       1
       1       2       1       1       2       2       1       1       1       2
       1       1       1       2       1       2       2       2       1       1
       2       1       1       2       1       2       2       2       1       1
       1       1       1       2       1       1       1       2       1       1
       2       2       1       1       1       2       1       1       1       2
       1       2       2       2       1       1       2       1       1       2
       1       2       2       2       1       1       1       1       1       2
       1       1       1       2       1       1       2       2       1       1
       1       2       1       1       1       2       1       2       2       2
       1       1       2       1       1       2       1       2       2       2
       1       1       1       1       1       2       1       1       1       2
       1       1       2       2       1       1       1       2       1       1
       1       2       1       2       2       2       1       1       2       1
       1       2       1       2       2       2       1       1       1       1
       1       2       1       1       1       2       1       1       2       2
       1       1       1       2       1       1       1       2       1       2
       2       2       1       1       2       1       1       2       1       2
       2       2       1       1       1       1       1       2       1       1
       1       2       1       1       2       2       1       1       1       2
       1       1       1       2       1       2       2       2       1       1
       2       1       1       2       1       2       2       2       1       1
       1       1       1       2       1       1       1       2       1       1
       2       2       1       1       1       2       1       1       1       2
       1       2       2       2       1       1       2       1       1       2
       1       2       2       2       1       1       1       1       1       2
       1       1       1       2       1       1       2       2       1       1
       1       2       1       1       1       2       1       2       2       2
       1       1       2       1       1       2       1       2       2       2
       1       1       1       1       1       2       1       1       1       2
       1       1       2       2       1       1       1       2       1       1
       1       2       1       2       2       2       1       1       2       1
       1       2       1       2       2       2       1       1       1       1
       1       2       1       1       1       2       1       1       2       2
       1       1       1       2       1       1       1       2       1       2
       2       2       1       1       2       1       1       2       1       2
       2       2       1       1       1       1       1       2       1       1
       1       2       1       1       2       2       1       1       1       2
       1       1       1       2       1       2       2       2       1       1
       2       1       1       2       1       2       2       2       1       1
       1       1       1       2       1       1       1       2       1       1
       2       2       1       1       1       2       1       1       1       2
       1       2       2       2       1       1       2       1       1       2
       1       2       2       2       1       1       1       1       1       2
       1       1       1       2       1       1       2       2       1       1
       1       2       1       1       1       2       1       2       2       2
       1       1       2       1       1       2       1       2       2       2
       1       1       1       1       1       2       1       1       1       2
       1       1       2       2       1       1       1       2       1       1
       1       2       1       2       2       2       1       1       2       1
       1       2       1       2       2       2       1       1       1       1
       1       2       1       1       1       2       1       1       2       2
       1       1       1       2       1       1       1       2       1       2
       2       2       1       1       2       1       1       2       1       2
       2       2       1       1       1       1       1       2       1       1
       1       2       1       1       2       2       1       1       1       2
       1       1       1       2       1       2       2       2       1       1
       2       1       1       2       1       2       2       2       1       1
       1       1       1       2       1       1       1       2       1       1
       2       2       1       1       1       2       1       1       1       2
       1       2       2       2       1       1       2       1       1       2
       1       2       2       2       1       1       1       1       1       2
       1       1       1       2       1       1       2       2       1       1
       1       2       1       1       1       2       1       2       2       2
       1       1       2       1       1       2       1       2       2       2
       1       1       1       1       1       2       1       1       1       2
       1       1       2       2       1       1       1       2       1       1
       1       2       1       2       2       2       1       1       2       1
       1       2       1       2       2       2       1       1       1       1
       1       2       1       1       1       2       1       1       2       2
       1       1       1       2       1       1       1       2       1       2
       2       2       1       1       2       1       1       2       1       2
       2       2       1       1       1       1       1       2       1       1
       1       2       1       1       2       2       1       1       1       2
       1       1       1       2       1       2       2       2       1       1
       2       1       1       2       1       2       2       2       1       1
       1       1       1       2       1       1       1       2       1       1
       2       2       1       1       1       2       1       1       1       2
       1       2       2       2       1       1       2       1       1       2
       1       2       2       2       1       1       1       1       1       2
       1       1       1       2       1       1       2       2       1       1
       1       2       1       1       1       2       1       2       2       2
       1       1       2       1       1       2       1       2       2       2
       1       1       1       1       1       2       1       1       1       2
       1       1       2       2       1       1       1       2       1       1
       1       2       1       2       2       2       1       1       2       1
       1       2       1       2       2       2       1       1       1       1
       1       2       1       1       1       2       1       1       2       2
       1       1       1       2       1       1       1       2       1       2
       2       2       1       1       2       1       1       2       1       2
       2       2       1       1       1       1       1       2       1       1
       1       2       1       1       2       2       1       1       1       2
       1       1       1       2       1       2       2       2       1       1
       2       1       1       2       1       2       2       2       1       1
       1       1       1       2       1       1       1       2       1       1
       2       2       1       1       1       2       1       1       1       2
       1       2       2       2       1       1       2       1       1       2
       1       2       2       2       1       1       1       1       1       2
       1       1       1       2       1       1       2       2       1       1
       1       2       1       1       1       2       1       2       2       2
       1       1       2       1       1       2       1       2       2       2
       1       1       1       1       1       2       1       1       1       2
       1       1       2       2       1       1       1       2       1       1
       1       2       1       2       2       2       1       1       2       1
       1       2       1       2       2       2       1       1       1       1
       1       2       1       1       1       2       1       1       2       2
       1       1       1       2       1       1       1       2       1       2
       2       2       1       1       2       1       1       2       1       2
       2       2       1       1       1       1       1       2       1       1
       1       2       1       1       2       2       1       1       1       2
       1       1       1       2       1       2       2       2       1       1
       2       1       1       2       1       2       2       2       1       1
       1       1       1       2       1       1       1       2       1       1
       2       2       1       1       1       2       1       1       1       2
       1       2       2       2       1       1       2       1       1       2
       1       2       2       2       1       1       1       1       1       2
       1       1       1       2       1       1       2       2       1       1
       1       2       1       1       1       2       1       2       2       2
       1       1       2       1       1       2       1       2       2       2
       1       1       1       1       1       2       1       1       1       2
       1       1       2       2       1       1       1       2       1       1
       1       2       1       2       2       2       1       1       2       1
       1       2       1       2       2       2       1       1       1       1
       1       2       1       1       1       2       1       1       2       2
       1       1       1       2       1       1       1       2       1       2
       2       2       1       1       2       1       1       2       1       2
       2       2       1       1       1       1       1       2       1       1
       1       2       1       1       2       2       1       1       1       2
       1       1       1       2       1       2       2       2       1       1
       2       1       1       2       1       2       2       2       1       1
       1       1       1       2       1       1       1       2       1       1
       2       2       1       1       1       2       1       1       1       2
       1       2       2       2       1       1       2       1       1       2
       1       2       2       2       1       1       1       1       1       2
       1       1       1       2       1       1       2       2       1       1
       1       2       1       1       1       2       1       2       2       2
       1       1       2       1       1       2       1       2       2       2
       1       1       1       1       1       2       1       1       1       2
       1       1       2       2       1       1       1       2       1       1
       1       2       1       2       2       2       1       1       2       1
       1       2       1       2       2       2       1       1       1       1
       1       2       1       1       1       2       1       1       2       2
       1       1       1       2       1       1       1       2       1       2
       2       2       1       1       2       1       1       2       1       2
       2       2       1       1       1       1       1       2       1       1
       1       2       1       1       2       2       1       1       1       2
       1       1       1       2       1       2       2       2       1       1
       2       1       1       2       1       2       2       2       1       1
       1       1       1       2       1       1       1       2       1       1
       2       2       1       1       1       2       1       1       1       2
       1       2       2       2       1       1       2       1       1       2
       1       2       2       2       1       1       1       1       1       2
       1       1       1       2       1       1       2       2       1       1
       1       2       1       1       1       2       1       2       2       2
       1       1       2       1       1       2       1       2       2       2
       1       1       1       1       1       2       1       1       1       2
       1       1       2       2       1       1       1       2       1       1
       1       2       1       2       2       2       1       1       2       1
       1       2       1       2       2       2       1       1       1       1
       1       2       1       1       1       2       1       1       2       2
       1       1       1       2       1       1       1       2       1       2
       2       2       1       1       2       1       1       2       1       2
       2       2       1       1       1       1       1       2       1       1
       1       2       1       1       2       2       1       1       1       2
       1       1       1       2       1       2       2       2       1       1
       2       1       1       2       1       2       2       2       1       1
       1       1       1       2       1       1       1       2       1       1
       2       2       1       1       1       2       1       1       1       2
       1       2       2       2       1       1       2       1       1       2
       1       2       2       2       1       1       1       1       1       2
       1       1       1       2       1       1       2       2       1       1
       1       2       1       1       1       2       1       2       2       2
       1       1       2       1       1       2       1       2       2       2
       1       1       1       1       1       2       1       1       1       2
       1       1       2       2       1       1       1       2       1       1
       1       2       1       2       2       2       1       1       2       1
       1       2       1       2       2       2       1       1       1       1
       1       2       1       1       1       2       1       1       2       2
       1       1       1       2       1       1       1       2       1       2
       2       2       1       1       2       1       1       2       1       2
       2       2       1       1       1       1       1       2       1       1
       1       2       1       1       2       2       1       1       1       2
       1       1       1       2       1       2       2       2       1       1
       2       1       1       2       1       2       2       2       1       1
       1       1       1       2       1       1       1       2       1       1
       2       2       1       1       1       2       1       1       1       2
       1       2       2       2       1       1       2       1       1       2
       1       2       2       2       1       1       1       1       1       2
       1       1       1       2       1       1       2       2       1       1
       1       2       1       1       1       2       1       2       2       2
       1       1       2       1       1       2       1       2       2       2
       1       1       1       1       1       2       1       1       1       2
       1       1       2       2       1       1       1       2       1       1
       1       2       1       2       2       2       1       1       2       1
       1       2       1       2       2       2       1       1       1       1
       1       2       1       1       1       2       1       1       2       2
       1       1       1       2       1       1       1       2       1       2
       2       2       1       1       2       1       1       2       1       2
       2       2       1       1       1       1       1       2       1       1
       1       2       1       1       2       2       1       1       1       2
       1       1       1       2       1       2       2       2       1       1
       2       1       1       2       1       2       2       2       1       1
       1       1       1       2       1       1       1       2       1       1
       2       2       1       1       1       2       1       1       1       2
       1       2       2       2       1       1       2       1       1       2
       1       2       2       2       1       1       1       1       1       2
       1       1       1       2       1       1       2       2       1       1
       1       2       1       1       1       2       1       2       2       2
       1       1       2       1       1       2       1       2       2       2
       1       1       1       1       1       2       1       1       1       2
       1       1       2       2       1       1       1       2       1       1
       1       2       1       2       2       2       1       1       2       1
       1       2       1       2       2       2       1       1       1       1
       1       2       1       1       1       2       1       1       2       2
       1       1       1       2       1       1       1       2       1       2
       2       2       1       1       2       1       1       2       1       2
       2       2       1       1       1       1       1       2       1       1
       1       2       1       1       2       2       1       1       1       2
       1       1       1       2       1       2       2       2       1       1
       2       1       1       2       1       2       2       2       1       1
       1       1       1       2       1       1       1       2       1       1
       2       2       1       1       1       2       1       1       1       2
       1       2       2       2       1       1       2       1       1       2
       1       2       2       2       1       1       1       1       1       2
       1       1       1       2       1       1       2       2       1       1
       1       2       1       1       1       2       1       2       2       2
       1       1       2       1       1       2       1       2       2       2
       1       1       1       1       1       2       1       1       1       2
       1       1       2       2       1       1       1       2       1       1
       1       2       1       2       2       2       1       1       2       1
       1       2       1       2       2       2       1       1       1       1
       1       2       1       1       1       2       1       1       2       2
       1       1       1       2       1       1       1       2       1       2
       2       2       1       1       2       1       1       2       1       2
       2       2       1       1       1       1       1       2       1       1
       1       2       1       1       2       2       1       1       1       2
       1       1       1       2       1       2       2       2       1       1
       2       1       1       2       1       2       2       2       1       1
       1       1       1       2       1       1       1       2       1       1
       2       2       1       1       1       2       1       1       1       2
       1       2       2       2       1       1       2       1       1       2
       1       2       2       2       1       1       1       1       1       2
       1       1       1       2       1       1       2       2       1       1
       1       2       1       1       1       2       1       2       2       2
       1       1       2       1       1       2       1       2       2       2
       1       1       1       1       1       2       1       1       1       2
       1       1       2       2       1       1       1       2       1       1
       1       2       1       2       2       2       1       1       2       1
       1       2       1       2       2       2       1       1       1       1
       1       2       1       1       1       2       1       1       2       2
       1       1       1       2       1       1       1       2       1       2
       2       2       1       1       2       1       1       2       1       2
       2       2       1       1       1       1       1       2       1       1
       1       2       1       1       2       2       1       1       1       2
       1       1       1       2       1       2       2       2       1       1
       2       1       1       2       1       2       2       2       1       1
       1       1       1       2       1       1       1       2       1       1
       2       2       1       1       1       2       1       1       1       2
       1       2       2       2       1       1       2       1       1       2
       1       2       2       2       1       1       1       1       1       2
       1       1       1       2       1       1       2       2       1       1
       1       2       1       1       1       2       1       2       2       2
       1       1       2       1       1       2       1       2       2       2
       1       1       1       1       1       2       1       1       1       2
       1       1       2       2       1       1       1       2       1       1
       1       2       1       2       2       2       1       1       2       1
       1       2       1       2       2       2       1       1       1       1
       1       2       1       1       1       2       1       1       2       2
       1       1       1       2       1       1       1       2       1       2
       2       2       1       1       2       1       1       2       1       2
       2       2       1       1       1       1       1       2       1       1
       1       2       1       1       2       2       1       1       1       2
       1       1       1       2       1       2       2       2       1       1
       2       1       1       2       1       2       2       2       1       1
       1       1       1       2       1       1       1       2       1       1
       2       2       1       1       1       2       1       1       1       2
       1       2       2       2       1       1       2       1       1       2
       1       2       2       2       1       1       1       1       1       2
       1       1       1       2       1       1       2       2       1       1
       1       2       1       1       1       2       1       2       2       2
       1       1       2       1       1       2       1       2       2       2
       1       1       1       1       1       2       1       1       1       2
       1       1       2       2       1       1       1       2       1       1
       1       2       1       2       2       2       1       1       2       1
       1       2       1       2       2       2       1       1       1       1
       1       2       1       1       1       2       1       1       2       2
       1       1       1       2       1       1       1       2       1       2
       2       2       1       1       2       1       1       2       1       2
       2       2       1       1       1       1       1       2       1       1
       1       2       1       1       2       2       1       1       1       2
       1       1       1       2       1       2       2       2       1       1
       2       1       1       2       1       2       2       2       1       1
       1       1       1       2       1       1       1       2       1       1
       2       2       1       1       1       2       1       1       1       2
       1       2       2       2       1       1       2       1       1       2
       1       2       2       2       1       1       1       1       1       2
       1       1       1       2       1       1       2       2       1       1
       1       2       1       1       1       2       1       2       2       2
       1       1       2       1       1       2       1       2       2       2
       1       1       1       1       1       2       1       1       1       2
       1       1       2       2       1       1       1       2       1       1
       1       2       1       2       2       2       1       1       2       1
       1       2       1       2       2       2       1       1       1       1
       1       2       1       1       1       2       1       1       2       2
       1       1       1       2       1       1       1       2       1       2
       2       2       1       1       2       1       1       2       1       2
       2       2       1       1       1       1       1       2       1       1
       1       2       1       1       2       2       1       1       1       2
       1       1       1       2       1       2       2       2       1       1
       2       1       1       2       1       2       2       2       1       1
       1       1       1       2       1       1       1       2       1       1
       2       2       1       1       1       2       1       1       1       2
       1       2       2       2       1       1       2       1       1       2
       1       2       2       2       1       1       1       1       1       2
       1       1       1       2       1       1       2       2       1       1
       1       2       1       1       1       2       1       2       2       2
       1       1       2       1       1       2       1       2       2       2
       1       1       1       1       1       2       1       1       1       2
       1       1       2       2       1       1       1       2       1       1
       1       2       1       2       2       2       1       1       2       1
       1       2       1       2       2       2       1       1       1       1
       1       2       1       1       1       2       1       1       2       2
       1       1       1       2       1       1       1       2       1       2
       2       2       1       1       2       1       1       2       1       2
       2       2       1       1       1       1       1       2       1       1
       1       2       1       1       2       2       1       1       1       2
       1       1       1       2       1       2       2       2       1       1
       2       1       1       2       1       2       2       2       1       1
       1       1       1       2       1       1       1       2       1       1
       2       2       1       1       1       2       1       1       1       2
       1       2       2       2       1       1       2       1       1       2
       1       2       2       2       1       1       1       1       1       2
       1       1       1       2       1       1       2       2       1       1
       1       2       1       1       1       2       1       2       2       2
       1       1       2       1       1       2       1       2       2       2
       1       1       1       1       1       2       1       1       1       2
       1       1       2       2       1       1       1       2       1       1
       1       2       1       2       2       2       1       1       2       1
       1       2       1       2       2       2       1       1       1       1
       1       2       1       1       1       2       1       1       2       2
       1       1       1       2       1       1       1       2       1       2
       2       2       1       1       2       1       1       2       1       2
       2       2       1       1       1       1       1       2       1       1
       1       2       1       1       2       2       1       1       1       2
       1       1       1       2       1       2       2       2       1       1
       2       1       1       2       1       2       2       2       1       1
       1       1       1       2       1       1       1       2       1       1
       2       2       1       1       1       2       1       1       1       2
       1       2       2       2       1       1       2       1       1       2
       1       2       2       2       1       1       1       1       1       2
       1       1       1       2       1       1       2       2       1       1
       1       2       1       1       1       2       1       2       2       2
       1       1       2       1       1       2       1       2       2       2
       1       1       1       1       1       2       1       1       1       2
       1       1       2       2       1       1       1       2       1       1
       1       2       1       2       2       2       1       1       2       1
       1       2       1       2       2       2       1       1       1       1
       1       2       1       1       1       2       1       1       2       2
       1       1       1       2       1       1       1       2       1       2
       2       2       1       1       2       1       1       2       1       2
       2       2       1       1       1       1       1       2       1       1
       1       2       1       1       2       2       1       1       1       2
       1       1       1       2       1       2       2       2       1       1
       2       1       1       2       1       2       2       2       1       1
       1       1       1       2       1       1       1       2       1       1
       2       2       1       1       1       2       1       1       1       2
       1       2       2       2       1       1       2       1       1       2
       1       2       2       2       1       1       1       1       1       2
       1       1       1       2       1       1       2       2       1       1
       1       2       1       1       1       2       1       2       2       2
       1       1       2       1       1       2       1       2       2       2
       1       1       1       1       1       2       1       1       1       2
       1       1       2       2       1       1       1       2       1       1
       1       2       1       2       2       2       1       1       2       1
       1       2       1       2       2       2       1       1       1       1
       1       2       1       1       1       2       1       1       2       2
       1       1       1       2       1       1       1       2       1       2
       2       2       1       1       2       1       1       2       1       2
       2       2       1       1       1       1       1       2       1       1
       1       2       1       1       2       2       1       1       1       2
       1       1       1       2       1       2       2       2       1       1
       2       1       1       2       1       2       2       2       1       1
       1       1       1       2       1       1       1       2       1       1
       2       2       1       1       1       2       1       1       1       2
       1       2       2       2       1       1       2       1       1       2
       1       2       2       2       1       1       1       1       1       2
       1       1       1       2       1       1       2       2       1       1
       1       2       1       1       1       2       1       2       2       2
       1       1       2       1       1       2       1       2       2       2
       1       1       1       1       1       2       1       1       1       2
       1       1       2       2       1       1       1       2       1       1
       1       2       1       2       2       2       1       1       2       1
       1       2       1       2       2       2       1       1       1       1
       1       2       1       1       1       2       1       1       2       2
       1       1       1       2       1       1       1       2       1       2
       2       2       1       1       2       1       1       2       1       2
       2       2       1       1       1       1       1       2       1       1
       1       2       1       1       2       2       1       1       1       2
       1       1       1       2       1       2       2       2       1       1
       2       1       1       2       1       2       2       2       1       1
       1       1       1       2       1       1       1       2       1       1
       2       2       1       1       1       2       1       1       1       2
       1       2       2       2       1       1       2       1       1       2
       1       2       2       2       1       1       1       1       1       2
       1       1       1       2       1       1       2       2       1       1
       1       2       1       1       1       2       1       2       2       2
       1       1       2       1       1       2       1       2       2       2
       1       1       1       1       1       2       1       1       1       2
       1       1       2       2       1       1       1       2       1       1
       1       2       1       2       2       2       1       1       2       1
       1       2       1       2       2       2       1       1       1       1
       1       2       1       1       1       2       1       1       2       2
       1       1       1       2       1       1       1       2       1       2
       2       2       1       1       2       1       1       2       1       2
       2       2       1       1       1       1       1       2       1       1
       1       2       1       1       2       2       1       1       1       2
       1       1       1       2       1       2       2       2       1       1
       2       1       1       2       1       2       2       2       1       1
       1       1       1       2       1       1       1       2       1       1
       2       2       1       1       1       2       1       1       1       2
       1       2       2       2       1       1       2       1       1       2
       1       2       2       2       1       1       1       1       1       2
       1       1       1       2       1       1       2       2       1       1
       1       2       1       1       1       2       1       2       2       2
       1       1       2       1       1       2       1       2       2       2
       1       1       1       1       1       2       1       1       1       2
       1       1       2       2       1       1       1       2       1       1
       1       2       1       2       2       2       1       1       2       1
       1       2       1       2       2       2       1       1       1       1
       1       2       1       1       1       2       1       1       2       2
       1       1       1       2       1       1       1       2       1       2
       2       2       1       1       2       1       1       2       1       2
       2       2       1       1       1       1       1       2       1       1
       1       2       1       1       2       2       1       1       1       2
       1       1       1       2       1       2       2       2       1       1
       2       1       1       2       1       2       2       2       1       1
       1       1       1       2       1       1       1       2       1       1
       2       2       1       1       1       2       1       1       1       2
       1       2       2       2       1       1       2       1       1       2
       1       2       2       2       1       1       1       1       1       2
       1       1       1       2       1       1       2       2       1       1
       1       2       1       1       1       2       1       2       2       2
       1       1       2       1       1       2       1       2       2       2
       1       1       1       1       1       2       1       1       1       2
       1       1       2       2       1       1       1       2       1       1
       1       2       1       2       2       2       1       1       2       1
       1       2       1       2       2       2       1       1       1       1
       1       2       1       1       1       2       1       1       2       2
       1       1       1       2       1       1       1       2       1       2
       2       2       1       1       2       1       1       2       1       2
       2       2       1       1       1       1       1       2       1       1
       1       2       1       1       2       2       1       1       1       2
       1       1       1       2       1       2       2       2       1       1
       2       1       1       2       1       2       2       2       1       1
       1       1       1       2       1       1       1       2       1       1
       2       2       1       1       1       2       1       1       1       2
       1       2       2       2       1       1       2       1       1       2
       1       2       2       2       1       1       1       1       1       2
       1       1       1       2       1       1       2       2       1       1
       1       2       1       1       1       2       1       2       2       2
       1       1       2       1       1       2       1       2       2       2
       1       1       1       1       1       2       1       1       1       2
       1       1       2       2       1       1       1       2       1       1
       1       2       1       2       2       2       1       1       2       1
       1       2       1       2       2       2       1       1       1       1
       1       2       1       1       1       2       1       1       2       2
       1       1       1       2       1       1       1       2       1       2
       2       2       1       1       2       1       1       2       1       2
       2       2       1       1       1       1       1       2       1       1
       1       2       1       1       2       2       1       1       1       2
       1       1       1       2       1       2       2       2       1       1
       2       1       1       2       1       2       2       2       1       1
       1       1       1       2       1       1       1       2       1       1
       2       2       1       1       1       2       1       1       1       2
       1       2       2       2       1       1       2       1       1       2
       1       2       2       2       1       1       1       1       1       2
       1       1       1       2       1       1       2       2       1       1
       1       2       1       1       1       2       1       2       2       2
       1       1       2       1       1       2       1       2       2       2
       1       1       1       1       1       2       1       1       1       2
       1       1       2       2       1       1       1       2       1       1
       1       2       1       2       2       2       1       1       2       1
       1       2       1       2       2       2       1       1       1       1
       1       2       1       1       1       2       1       1       2       2
       1       1       1       2       1       1       1       2       1       2
       2       2       1       1       2       1       1       2       1       2
       2       2       1       1       1       1       1       2       1       1
       1       2       1       1       2       2       1       1       1       2
       1       1       1       2       1       2       2       2       1       1
       2       1       1       2       1       2       2       2       1       1
       1       1       1       2       1       1       1       2       1       1
       2       2       1       1       1       2       1       1       1       2
       1       2       2       2       1       1       2       1       1       2
       1       2       2       2       1       1       1       1       1       2
       1       1       1       2       1       1       2       2       1       1
       1       2       1       1       1       2       1       2       2       2
       1       1       2       1       1       2       1       2       2       2
       1       1       1       1       1       2       1       1       1       2
       1       1       2       2       1       1       1       2       1       1
       1       2       1       2       2       2       1       1       2       1
       1       2       1       2       2       2       1       1       1       1
       1       2       1       1       1       2       1       1       2       2
       1       1       1       2       1       1       1       2       1       2
       2       2       1       1       2       1       1       2       1       2
       2       2       1       1       1       1       1       2       1       1
       1       2       1       1       2       2       1       1       1       2
       1       1       1       2       1       2       2       2       1       1
       2       1       1       2       1       2       2       2       1       1
       1       1       1       2       1       1       1       2       1       1
       2       2       1       1       1       2       1       1       1       2
       1       2       2       2       1       1       2       1       1       2
       1       2       2       2       1       1       1       1       1       2
       1       1       1       2       1       1       2       2       1       1
       1       2       1       1       1       2       1       2       2       2
       1       1       2       1       1       2       1       2       2       2
       1       1       1       1       1       2       1       1       1       2
       1       1       2       2       1       1       1       2       1       1
       1       2       1       2       2       2       1       1       2       1
       1       2       1       2       2       2       1       1       1       1
       1       2       1       1       1       2       1       1       2       2
       1       1       1       2       1       1       1       2       1       2
       2       2       1       1       2       1       1       2       1       2
       2       2       1       1       1       1       1       2       1       1
       1       2       1       1       2       2       1       1       1       2
       1       1       1       2       1       2       2       2       1       1
       2       1       1       2       1       2       2       2       1       1
       1       1       1       2       1       1       1       2       1       1
       2       2       1       1       1       2       1       1       1       2
       1       2       2       2       1       1       2       1       1       2
       1       2       2       2       1       1       1       1       1       2
       1       1       1       2       1       1       2       2       1       1
       1       2       1       1       1       2       1       2       2       2
       1       1       2       1       1       2       1       2       2       2
       1       1       1       1       1       2       1       1       1       2
       1       1       2       2       1       1       1       2       1       1
       1       2       1       2       2       2       1       1       2       1
       1       2       1       2       2       2       1       1       1       1
       1       2       1       1       1       2       1       1       2       2
       1       1       1       2       1       1       1       2       1       2
       2       2       1       1       2       1       1       2       1       2
       2       2       1       1       1       1       1       2       1       1
       1       2       1       1       2       2       1       1       1       2
       1       1       1       2       1       2       2       2       1       1
       2       1       1       2       1       2       2       2       1       1
       1       1       1       2       1       1       1       2       1       1
       2       2       1       1       1       2       1       1       1       2
       1       2       2       2       1       1       2       1       1       2
       1       2       2       2       1       1       1       1       1       2
       1       1       1       2       1       1       2       2       1       1
       1       2       1       1       1       2       1       2       2       2
       1       1       2       1       1       2       1       2       2       2
       1       1       1       1       1       2       1       1       1       2
       1       1       2       2       1       1       1       2       1       1
       1       2       1       2       2       2       1       1       2       1
       1       2       1       2       2       2       1       1       1       1
       1       2       1       1       1       2       1       1       2       2
       1       1       1       2       1       1       1       2       1       2
       2       2       1       1       2       1       1       2       1       2
       2       2       1       1       1       1       1       2       1       1
       1       2       1       1       2       2       1       1       1       2
       1       1       1       2       1       2       2       2       1       1
       2       1       1       2       1       2       2       2       1       1
       1       1       1       2       1       1       1       2       1       1
       2       2       1       1       1       2       1       1       1       2
       1       2       2       2       1       1       2       1       1       2
       1       2       2       2       1       1       1       1       1       2
       1       1       1       2       1       1       2       2       1       1
       1       2       1       1       1       2       1       2       2       2
       1       1       2       1       1       2       1       2       2       2
       1       1       1       1       1       2       1       1       1       2
       1       1       2       2       1       1       1       2       1       1
       1       2       1       2       2       2       1       1       2       1
       1       2       1       2       2       2       1       1       1       1
       1       2       1       1       1       2       1       1       2       2
       1       1       1       2       1       1       1       2       1       2
       2       2       1       1       2       1       1       2       1       2
       2       2       1       1       1       1       1       2       1       1
       1       2       1       1       2       2       1       1       1       2
       1       1       1       2       1       2       2       2       1       1
       2       1       1       2       1       2       2       2       1       1
       1       1       1       2       1       1       1       2       1       1
       2       2       1       1       1       2       1       1       1       2
       1       2       2       2       1       1       2       1       1       2
       1       2       2       2       1       1       1       1       1       2
       1       1       1       2       1       1       2       2       1       1
       1       2       1       1       1       2       1       2       2       2
       1       1       2       1       1       2       1       2       2       2
       1       1       1       1       1       2       1       1       1       2
       1       1       2       2       1       1       1       2       1       1
       1       2       1       2       2       2       1       1       2       1
       1       2       1       2       2       2       1       1       1       1
       1       2       1       1       1       2       1       1       2       2
       1       1       1       2       1       1       1       2       1       2
       2       2       1       1       2       1       1       2       1       2
       2       2       1       1       1       1       1       2       1       1
       1       2       1       1       2       2       1       1       1       2
       1       1       1       2       1       2       2       2       1       1
       2       1       1       2       1       2       2       2       1       1
       1       1       1       2       1       1       1       2       1       1
       2       2       1       1       1       2       1       1       1       2
       1       2       2       2       1       1       2       1       1       2
       1       2       2       2       1       1       1       1       1       2
       1       1       1       2       1       1       2       2       1       1
       1       2       1       1       1       2       1       2       2       2
       1       1       2       1       1       2       1       2       2       2
       1       1       1       1       1       2       1       1       1       2
       1       1       2       2       1       1       1       2       1       1
       1       2       1       2       2       2       1       1       2       1
       1       2       1       2       2       2       1       1       1       1
       1       2       1       1       1       2       1       1       2       2
       1       1       1       2       1       1       1       2       1       2
       2       2       1       1       2       1       1       2       1       2
       2       2       1       1       1       1       1       2       1       1
       1       2       1       1       2       2       1       1       1       2
       1       1       1       2       1       2       2       2       1       1
       2       1       1       2       1       2       2       2       1       1
       1       1       1       2       1       1       1       2       1       1
       2       2       1       1       1       2       1       1       1       2
       1       2       2       2       1       1       2       1       1       2
       1       2       2       2       1       1       1       1       1       2
       1       1       1       2       1       1       2       2       1       1
       1       2       1       1       1       2       1       2       2       2
       1       1       2       1       1       2       1       2       2       2
       1       1       1       1       1       2       1       1       1       2
       1       1       2       2       1       1       1       2       1       1
       1       2       1       2       2       2       1       1       2       1
       1       2       1       2       2       2       1       1       1       1
       1       2       1       1       1       2       1       1       2       2
       1       1       1       2       1       1       1       2       1       2
       2       2       1       1       2       1       1       2       1       2
       2       2       1       1       1       1       1       2       1       1
       1       2       1       1       2       2       1       1       1       2
       1       1       1       2       1       2       2       2       1       1
       2       1       1       2       1       2       2       2       1       1
       1       1       1       2       1       1       1       2       1       1
       2       2       1       1       1       2       1       1       1       2
       1       2       2       2       1       1       2       1       1       2
       1       2       2       2       1       1       1       1       1       2
       1       1       1       2       1       1       2       2       1       1
       1       2       1       1       1       2       1       2       2       2
       1       1       2       1       1       2       1       2       2       2
%FLAG NUMBER_EXCLUDED_ATOMS                                                     
%FORMAT(10I8)                                                                   
      15      13      13      11      11       2       9       9      10       2
       7       7       1       2       7       8       6       2       4       7
      10       2       3       1       1       2       7       6       1       5
       5       2       3       1       1       1      15      13      13      11
      11       2       9       9      10       2       7       7       1       2
       7       8       6       2       4       7      10       2       3       1
       1       2       7       6       1       5       5       2       3       1
       1       1      15      13      13      11      11       2       9       9
      10       2       7       7       1       2       7       8       6       2
       4       7      10       2       3       1       1       2       7       6
       1       5       5       2       3       1       1       1      15      13
      13      11      11       2       9       9      10       2       7       7
       1       2       7       8       6       2       4       7      10       2
       3       1       1       2       7       6       1       5       5       2
       3       1       1       1      15      13      13      11      11       2
       9       9      10       2       7       7       1       2       7       8
       6       2       4       7      10       2       3       1       1       2
       7       6       1       5       5       2       3       1       1       1
      15      13      13      11      11       2       9       9      10       2
       7       7       1       2       7       8       6       2       4       7
      10       2       3       1       1       2       7       6       1       5
       5       2       3       1       1       1      15      13      13      11
      11       2       9       9      10       2       7       7       1       2
       7       8       6       2       4       7      10       2       3       1
       1       2       7       6       1       5       5       2       3       1
       1       1      15      13      13      11      11       2       9       9
      10       2       7       7       1       2       7       8       6       2
       4       7      10       2       3       1       1       2       7       6
       1       5       5       2       3       1       1       1      15      13
      13      11      11       2       9       9      10       2       7       7
       1       2       7       8       6       2       4       7      10       2
       3       1       1       2       7       6       1       5       5       2
       3       1       1       1      15      13      13      11      11       2
       9       9      10       2       7       7       1       2       7       8
       6       2       4       7      10       2       3       1       1       2
       7       6       1       5       5       2       3       1       1       1
      15      13      13      11      11       2       9       9      10       2
       7       7       1       2       7       8       6       2       4       7
      10       2       3       1       1       2       7       6       1       5
       5       2       3       1       1       1      15      13      13      11
      11       2       9       9      10       2       7       7       1       2
       7       8       6       2       4       7      10       2       3       1
       1       2       7       6       1       5       5       2       3       1
       1       1      15      13      13      11      11       2       9       9
      10       2       7       7       1       2       7       8       6       2
       4       7      10       2       3       1       1       2       7       6
       1       5       5       2       3       1       1       1      15      13
      13      11      11       2       9       9      10       2       7       7
       1       2       7       8       6       2       4       7      10       2
       3       1       1       2       7       6       1       5       5       2
       3       1       1       1      15      13      13      11      11       2
       9       9      10       2       7       7       1       2       7       8
       6       2       4       7      10       2       3       1       1       2
       7       6       1       5       5       2       3       1       1       1
      15      13      13      11      11       2       9       9      10       2
       7       7       1       2       7       8       6       2       4       7
      10       2       3       1       1       2       7       6       1       5
       5       2       3       1       1       1      15      13      13      11
      11       2       9       9      10       2       7       7       1       2
       7       8       6       2       4       7      10       2       3       1
       1       2       7       6       1       5       5       2       3       1
       1       1      15      13      13      11      11       2       9       9
      10       2       7       7       1       2       7       8       6       2
       4       7      10       2       3       1       1       2       7       6
       1       5       5       2       3       1       1       1      15      13
      13      11      11       2       9       9      10       2       7       7
       1       2       7       8       6       2       4       7      10       2
       3       1       1       2       7       6       1       5       5       2
       3       1       1       1      15      13      13      11      11       2
       9       9      10       2       7       7       1       2       7       8
       6       2       4       7      10       2       3       1       1       2
       7       6       1       5       5       2       3       1       1       1
      15      13      13      11      11       2       9       9      10       2
       7       7       1       2       7       8       6       2       4       7
      10       2       3       1       1       2       7       6       1       5
       5       2       3       1       1       1      15      13      13      11
      11       2       9       9      10       2       7       7       1       2
       7       8       6       2       4       7      10       2       3       1
       1       2       7       6       1       5       5       2       3       1
       1       1      15      13      13      11      11       2       9       9
      10       2       7       7       1       2       7       8       6       2
       4       7      10       2       3       1       1       2       7       6
       1       5       5       2       3       1       1       1      15      13
      13      11      11       2       9       9      10       2       7       7
       1       2       7       8       6       2       4       7      10       2
       3       1       1       2       7       6       1       5       5       2
       3       1       1       1      15      13      13      11      11       2
       9       9      10       2       7       7       1       2       7       8
       6       2       4       7      10       2       3       1       1       2
       7       6       1       5       5       2       3       1       1       1
      15      13      13      11      11       2       9       9      10       2
       7       7       1       2       7       8       6       2       4       7
      10       2       3       1       1       2       7       6       1       5
       5       2       3       1       1       1      15      13      13      11
      11       2       9       9      10       2       7       7       1       2
       7       8       6       2       4       7      10       2       3       1
       1       2       7       6       1       5       5       2       3       1
       1       1      15      13      13      11      11       2       9       9
      10       2       7       7       1       2       7       8       6       2
       4       7      10       2       3       1       1       2       7       6
       1       5       5       2       3       1       1       1      15      13
      13      11      11       2       9       9      10       2       7       7
       1       2       7       8       6       2       4       7      10       2
       3       1       1       2       7       6       1       5       5       2
       3       1       1       1      15      13      13      11      11       2
       9       9      10       2       7       7       1       2       7       8
       6       2       4       7      10       2       3       1       1       2
       7       6       1       5       5       2       3       1       1       1
      15      13      13      11      11       2       9       9      10       2
       7       7       1       2       7       8       6       2       4       7
      10       2       3       1       1       2       7       6       1       5
       5       2       3       1       1       1      15      13      13      11
      11       2       9       9      10       2       7       7       1       2
       7       8       6       2       4       7      10       2       3       1
       1       2       7       6       1       5       5       2       3       1
       1       1      15      13      13      11      11       2       9       9
      10       2       7       7       1       2       7       8       6       2
       4       7      10       2       3       1       1       2       7       6
       1       5       5       2       3       1       1       1      15      13
      13      11      11       2       9       9      10       2       7       7
       1       2       7       8       6       2       4       7      10       2
       3       1       1       2       7       6       1       5       5       2
       3       1       1       1      15      13      13      11      11       2
       9       9      10       2       7       7       1       2       7       8
       6       2       4       7      10       2       3       1       1       2
       7       6       1       5       5       2       3       1       1       1
      15      13      13      11      11       2       9       9      10       2
       7       7       1       2       7       8       6       2       4       7
      10       2       3       1       1       2       7       6       1       5
       5       2       3       1       1       1      15      13      13      11
      11       2       9       9      10       2       7       7       1       2
       7       8       6       2       4       7      10       2       3       1
       1       2       7       6       1       5       5       2       3       1
       1       1      15      13      13      11      11       2       9       9
      10       2       7       7       1       2       7       8       6       2
       4       7      10       2       3       1       1       2       7       6
       1       5       5       2       3       1       1       1      15      13
      13      11      11       2       9       9      10       2       7       7
       1       2       7       8       6       2       4       7      10       2
       3       1       1       2       7       6       1       5       5       2
       3       1       1       1      15      13      13      11      11       2
       9       9      10       2       7       7       1       2       7       8
       6       2       4       7      10       2       3       1       1       2
       7       6       1       5       5       2       3       1       1       1
      15      13      13      11      11       2       9       9      10       2
       7       7       1       2       7       8       6       2       4       7
      10       2       3       1       1       2       7       6       1       5
       5       2       3       1       1       1      15      13      13      11
      11       2       9       9      10       2       7       7       1       2
       7       8       6       2       4       7      10       2       3       1
       1       2       7       6       1       5       5       2       3       1
       1       1      15      13      13      11      11       2       9       9
      10       2       7       7       1       2       7       8       6       2
       4       7      10       2       3       1       1       2       7       6
       1       5       5       2       3       1       1       1      15      13
      13      11      11       2       9       9      10       2       7       7
       1       2       7       8       6       2       4       7      10       2
       3       1       1       2       7       6       1       5       5       2
       3       1       1       1      15      13      13      11      11       2
       9       9      10       2       7       7       1       2       7       8
       6       2       4       7      10       2       3       1       1       2
       7       6       1       5       5       2       3       1       1       1
      15      13      13      11      11       2       9       9      10       2
       7       7       1       2       7       8       6       2       4       7
      10       2       3       1       1       2       7       6       1       5
       5       2       3       1       1       1      15      13      13      11
      11       2       9       9      10       2       7       7       1       2
       7       8       6       2       4       7      10       2       3       1
       1       2       7       6       1       5       5       2       3       1
       1       1      15      13      13      11      11       2       9       9
      10       2       7       7       1       2       7       8       6       2
       4       7      10       2       3       1       1       2       7       6
       1       5       5       2       3       1       1       1      15      13
      13      11      11       2       9       9      10       2       7       7
       1       2       7       8       6       2       4       7      10       2
       3       1       1       2       7       6       1       5       5       2
       3       1       1       1      15      13      13      11      11       2
       9       9      10       2       7       7       1       2       7       8
       6       2       4       7      10       2       3       1       1       2
       7       6       1       5       5       2       3       1       1       1
      15      13      13      11      11       2       9       9      10       2
       7       7       1       2       7       8       6       2       4       7
      10       2       3       1       1       2       7       6       1       5
       5       2       3       1       1       1      15      13      13      11
      11       2       9       9      10       2       7       7       1       2
       7       8       6       2       4       7      10       2       3       1
       1       2       7       6       1       5       5       2       3       1
       1       1      15      13      13      11      11       2       9       9
      10       2       7       7       1       2       7       8       6       2
       4       7      10       2       3       1       1       2       7       6
       1       5       5       2       3       1       1       1      15      13
      13      11      11       2       9       9      10       2       7       7
       1       2       7       8       6       2       4       7      10       2
       3       1       1       2       7       6       1       5       5       2
       3       1       1       1      15      13      13      11      11       2
       9       9      10       2       7       7       1       2       7       8
       6       2       4       7      10       2       3       1       1       2
       7       6       1       5       5       2       3       1       1       1
      15      13      13      11      11       2       9       9      10       2
       7       7       1       2       7       8       6       2       4       7
      10       2       3       1       1       2       7       6       1       5
       5       2       3       1       1       1      15      13      13      11
      11       2       9       9      10       2       7       7       1       2
       7       8       6       2       4       7      10       2       3       1
       1       2       7       6       1       5       5       2       3       1
       1       1      15      13      13      11      11       2       9       9
      10       2       7       7       1       2       7       8       6       2
       4       7      10       2       3       1       1       2       7       6
       1       5       5       2       3       1       1       1      15      13
      13      11      11       2       9       9      10       2       7       7
       1       2       7       8       6       2       4       7      10       2
       3       1       1       2       7       6       1       5       5       2
       3       1       1       1      15      13      13      11      11       2
       9       9      10       2       7       7       1       2       7       8
       6       2       4       7      10       2       3       1       1       2
       7       6       1       5       5       2       3       1       1       1
      15      13      13      11      11       2       9       9      10       2
       7       7       1       2       7       8       6       2       4       7
      10       2       3       1       1       2       7       6       1       5
       5       2       3       1       1       1      15      13      13      11
      11       2       9       9      10       2       7       7       1       2
       7       8       6       2       4       7      10       2       3       1
       1       2       7       6       1       5       5       2       3       1
       1       1      15      13      13      11      11       2       9       9
      10       2       7       7       1       2       7       8       6       2
       4       7      10       2       3       1       1       2       7       6
       1       5       5       2       3       1       1       1      15      13
      13      11      11       2       9       9      10       2       7       7
       1       2       7       8       6       2       4       7      10       2
       3       1       1       2       7       6       1       5       5       2
       3       1       1       1      15      13      13      11      11       2
       9       9      10       2       7       7       1       2       7       8
       6       2       4       7      10       2       3       1       1       2
       7       6       1       5       5       2       3       1       1       1
      15      13      13      11      11       2       9       9      10       2
       7       7       1       2       7       8       6       2       4       7
      10       2       3       1       1       2       7       6       1       5
       5       2       3       1       1       1      15      13      13      11
      11       2       9       9      10       2       7       7       1       2
       7       8       6       2       4       7      10       2       3       1
       1       2       7       6       1       5       5       2       3       1
       1       1      15      13      13      11      11       2       9       9
      10       2       7       7       1       2       7       8       6       2
       4       7      10       2       3       1       1       2       7       6
       1       5       5       2       3       1       1       1      15      13
      13      11      11       2       9       9      10       2       7       7
       1       2       7       8       6       2       4       7      10       2
       3       1       1       2       7       6       1       5       5       2
       3       1       1       1      15      13      13      11      11       2
       9       9      10       2       7       7       1       2       7       8
       6       2       4       7      10       2       3       1       1       2
       7       6       1       5       5       2       3       1       1       1
      15      13      13      11      11       2       9       9      10       2
       7       7       1       2       7       8       6       2       4       7
      10       2       3       1       1       2       7       6       1       5
       5       2       3       1       1       1      15      13      13      11
      11       2       9       9      10       2       7       7       1       2
       7       8       6       2       4       7      10       2       3       1
       1       2       7       6       1       5       5       2       3       1
       1       1      15      13      13      11      11       2       9       9
      10       2       7       7       1       2       7       8       6       2
       4       7      10       2       3       1       1       2       7       6
       1       5       5       2       3       1       1       1      15      13
      13      11      11       2       9       9      10       2       7       7
       1       2       7       8       6       2       4       7      10       2
       3       1       1       2       7       6       1       5       5       2
       3       1       1       1      15      13      13      11      11       2
       9       9      10       2       7       7       1       2       7       8
       6       2       4       7      10       2       3       1       1       2
       7       6       1       5       5       2       3       1       1       1
      15      13      13      11      11       2       9       9      10       2
       7       7       1       2       7       8       6       2       4       7
      10       2       3       1       1       2       7       6       1       5
       5       2       3       1       1       1      15      13      13      11
      11       2       9       9      10       2       7       7       1       2
       7       8       6       2       4       7      10       2       3       1
       1       2       7       6       1       5       5       2       3       1
       1       1      15      13      13      11      11       2       9       9
      10       2       7       7       1       2       7       8       6       2
       4       7      10       2       3       1       1       2       7       6
       1       5       5       2       3       1       1       1      15      13
      13      11      11       2       9       9      10       2       7       7
       1       2       7       8       6       2       4       7      10       2
       3       1       1       2       7       6       1       5       5       2
       3       1       1       1      15      13      13      11      11       2
       9       9      10       2       7       7       1       2       7       8
       6       2       4       7      10       2       3       1       1       2
       7       6       1       5       5       2       3       1       1       1
      15      13      13      11      11       2       9       9      10       2
       7       7       1       2       7       8       6       2       4       7
      10       2       3       1       1       2       7       6       1       5
       5       2       3       1       1       1      15      13      13      11
      11       2       9       9      10       2       7       7       1       2
       7       8       6       2       4       7      10       2       3       1
       1       2       7       6       1       5       5       2       3       1
       1       1      15      13      13      11      11       2       9       9
      10       2       7       7       1       2       7       8       6       2
       4       7      10       2       3       1       1       2       7       6
       1       5       5       2       3       1       1       1      15      13
      13      11      11       2       9       9      10       2       7       7
       1       2       7       8       6       2       4       7      10       2
       3       1       1       2       7       6       1       5       5       2
       3       1       1       1      15      13      13      11      11       2
       9       9      10       2       7       7       1       2       7       8
       6       2       4       7      10       2       3       1       1       2
       7       6       1       5       5       2       3       1       1       1
      15      13      13      11      11       2       9       9      10       2
       7       7       1       2       7       8       6       2       4       7
      10       2       3       1       1       2       7       6       1       5
       5       2       3       1       1       1      15      13      13      11
      11       2       9       9      10       2       7       7       1       2
       7       8       6       2       4       7      10       2       3       1
       1       2       7       6       1       5       5       2       3       1
       1       1      15      13      13      11      11       2       9       9
      10       2       7       7       1       2       7       8       6       2
       4       7      10       2       3       1       1       2       7       6
       1       5       5       2       3       1       1       1      15      13
      13      11      11       2       9       9      10       2       7       7
       1       2       7       8       6       2       4       7      10       2
       3       1       1       2       7       6       1       5       5       2
       3       1       1       1      15      13      13      11      11       2
       9       9      10       2       7       7       1       2       7       8
       6       2       4       7      10       2       3       1       1       2
       7       6       1       5       5       2       3       1       1       1
      15      13      13      11      11       2       9       9      10       2
       7       7       1       2       7       8       6       2       4       7
      10       2       3       1       1       2       7       6       1       5
       5       2       3       1       1       1      15      13      13      11
      11       2       9       9      10       2       7       7       1       2
       7       8       6       2       4       7      10       2       3       1
       1       2       7       6       1       5       5       2       3       1
       1       1      15      13      13      11      11       2       9       9
      10       2       7       7       1       2       7       8       6       2
       4       7      10       2       3       1       1       2       7       6
       1       5       5       2       3       1       1       1      15      13
      13      11      11       2       9       9      10       2       7       7
       1       2       7       8       6       2       4       7      10       2
       3       1       1       2       7       6       1       5       5       2
       3       1       1       1      15      13      13      11      11       2
       9       9      10       2       7       7       1       2       7       8
       6       2       4       7      10       2       3       1       1       2
       7       6       1       5       5       2       3       1       1       1
      15      13      13      11      11       2       9       9      10       2
       7       7       1       2       7       8       6       2       4       7
      10       2       3       1       1       2       7       6       1       5
       5       2       3       1       1       1      15      13      13      11
      11       2       9       9      10       2       7       7       1       2
       7       8       6       2       4       7      10       2       3       1
       1       2       7       6       1       5       5       2       3       1
       1       1      15      13      13      11      11       2       9       9
      10       2       7       7       1       2       7       8       6       2
       4       7      10       2       3       1       1       2       7       6
       1       5       5       2       3       1       1       1      15      13
      13      11      11       2       9       9      10       2       7       7
       1       2       7       8       6       2       4       7      10       2
       3       1       1       2       7       6       1       5       5       2
       3       1       1       1      15      13      13      11      11       2
       9       9      10       2       7       7       1       2       7       8
       6       2       4       7      10       2       3       1       1       2
       7       6       1       5       5       2       3       1       1       1
      15      13      13      11      11       2       9       9      10       2
       7       7       1       2       7       8       6       2       4       7
      10       2       3       1       1       2       7       6       1       5
       5       2       3       1       1       1      15      13      13      11
      11       2       9       9      10       2       7       7       1       2
       7       8       6       2       4       7      10       2       3       1
       1       2       7       6       1       5       5       2       3       1
       1       1      15      13      13      11      11       2       9       9
      10       2       7       7       1       2       7       8       6       2
       4       7      10       2       3       1       1       2       7       6
       1       5       5       2       3       1       1       1      15      13
      13      11      11       2       9       9      10       2       7       7
       1       2       7       8       6       2       4       7      10       2
       3       1       1       2       7       6       1       5       5       2
       3       1       1       1      15      13      13      11      11       2
       9       9      10       2       7       7       1       2       7       8
       6       2       4       7      10       2       3       1       1       2
       7       6       1       5       5       2       3       1       1       1
      15      13      13      11      11       2       9       9      10       2
       7       7       1       2       7       8       6       2       4       7
      10       2       3       1       1       2       7       6       1       5
       5       2       3       1       1       1      15      13      13      11
      11       2       9       9      10       2       7       7       1       2
       7       8       6       2       4       7      10       2       3       1
       1       2       7       6       1       5       5       2       3       1
       1       1      15      13      13      11      11       2       9       9
      10       2       7       7       1       2       7       8       6       2
       4       7      10       2       3       1       1       2       7       6
       1       5       5       2       3       1       1       1      15      13
      13      11      11       2       9       9      10       2       7       7
       1       2       7       8       6       2       4       7      10       2
       3       1       1       2       7       6       1       5       5       2
       3       1       1       1      15      13      13      11      11       2
       9       9      10       2       7       7       1       2       7       8
       6       2       4       7      10       2       3       1       1       2
       7       6       1       5       5       2       3       1       1       1
      15      13      13      11      11       2       9       9      10       2
       7       7       1       2       7       8       6       2       4       7
      10       2       3       1       1       2       7       6       1       5
       5       2       3       1       1       1      15      13      13      11
      11       2       9       9      10       2       7       7       1       2
       7       8       6       2       4       7      10       2       3       1
       1       2       7       6       1       5       5       2       3       1
       1       1      15      13      13      11      11       2       9       9
      10       2       7       7       1       2       7       8       6       2
       4       7      10       2       3       1       1       2       7       6
       1       5       5       2       3       1       1       1      15      13
      13      11      11       2       9       9      10       2       7       7
       1       2       7       8       6       2       4       7      10       2
       3       1       1       2       7       6       1       5       5       2
       3       1       1       1      15      13      13      11      11       2
       9       9      10       2       7       7       1       2       7       8
       6       2       4       7      10       2       3       1       1       2
       7       6       1       5       5       2       3       1       1       1
      15      13      13      11      11       2       9       9      10       2
       7       7       1       2       7       8       6       2       4       7
      10       2       3       1       1       2       7       6       1       5
       5       2       3       1       1       1      15      13      13      11
      11       2       9       9      10       2       7       7       1       2
       7       8       6       2       4       7      10       2       3       1
       1       2       7       6       1       5       5       2       3       1
       1       1      15      13      13      11      11       2       9       9
      10       2       7       7       1       2       7       8       6       2
       4       7      10       2       3       1       1       2       7       6
       1       5       5       2       3       1       1       1      15      13
      13      11      11       2       9       9      10       2       7       7
       1       2       7       8       6       2       4       7      10       2
       3       1       1       2       7       6       1       5       5       2
       3       1       1       1      15      13      13      11      11       2
       9       9      10       2       7       7       1       2       7       8
       6       2       4       7      10       2       3       1       1       2
       7       6       1       5       5       2       3       1       1       1
      15      13      13      11      11       2       9       9      10       2
       7       7       1       2       7       8       6       2       4       7
      10       2       3       1       1       2       7       6       1       5
       5       2       3       1       1       1      15      13      13      11
      11       2       9       9      10       2       7       7       1       2
       7       8       6       2       4       7      10       2       3       1
       1       2       7       6       1       5       5       2       3       1
       1       1      15      13      13      11      11       2       9       9
      10       2       7       7       1       2       7       8       6       2
       4       7      10       2       3       1       1       2       7       6
       1       5       5       2       3       1       1       1      15      13
      13      11      11       2       9       9      10       2       7       7
       1       2       7       8       6       2       4       7      10       2
       3       1       1       2       7       6       1       5       5       2
       3       1       1       1      15      13      13      11      11       2
       9       9      10       2       7       7       1       2       7       8
       6       2       4       7      10       2       3       1       1       2
       7       6       1       5       5       2       3       1       1       1
      15      13      13      11      11       2       9       9      10       2
       7       7       1       2       7       8       6       2       4       7
      10       2       3       1       1       2       7       6       1       5
       5       2       3       1       1       1      15      13      13      11
      11       2       9       9      10       2       7       7       1       2
       7       8       6       2       4       7      10       2       3       1
       1       2       7       6       1       5       5       2       3       1
       1       1      15      13      13      11      11       2       9       9
      10       2       7       7       1       2       7       8       6       2
       4       7      10       2       3       1       1       2       7       6
       1       5       5       2       3       1       1       1      15      13
      13      11      11       2       9       9      10       2       7       7
       1       2       7       8       6       2       4       7      10       2
       3       1       1       2       7       6       1       5       5       2
       3       1       1       1      15      13      13      11      11       2
       9       9      10       2       7       7       1       2       7       8
       6       2       4       7      10       2       3       1       1       2
       7       6       1       5       5       2       3       1       1       1
      15      13      13      11      11       2       9       9      10       2
       7       7       1       2       7       8       6       2       4       7
      10       2       3       1       1       2       7       6       1       5
       5       2       3       1       1       1      15      13      13      11
      11       2       9       9      10       2       7       7       1       2
       7       8       6       2       4       7      10       2       3       1
       1       2       7       6       1       5       5       2       3       1
       1       1      15      13      13      11      11       2       9       9
      10       2       7       7       1       2       7       8       6       2
       4       7      10       2       3       1       1       2       7       6
       1       5       5       2       3       1       1       1      15      13
      13      11      11       2       9       9      10       2       7       7
       1       2       7       8       6       2       4       7      10       2
       3       1       1       2       7       6       1       5       5       2
       3       1       1       1      15      13      13      11      11       2
       9       9      10       2       7       7       1       2       7       8
       6       2       4       7      10       2       3       1       1       2
       7       6       1       5       5       2       3       1       1       1
      15      13      13      11      11       2       9       9      10       2
       7       7       1       2       7       8       6       2       4       7
      10       2       3       1       1       2       7       6       1       5
       5       2       3       1       1       1      15      13      13      11
      11       2       9       9      10       2       7       7       1       2
       7       8       6       2       4       7      10       2       3       1
       1       2       7       6       1       5       5       2       3       1
       1       1      15      13      13      11      11       2       9       9
      10       2       7       7       1       2       7       8       6       2
       4       7      10       2       3       1       1       2       7       6
       1       5       5       2       3       1       1       1      15      13
      13      11      11       2       9       9      10       2       7       7
       1       2       7       8       6       2       4       7      10       2
       3       1       1       2       7       6       1       5       5       2
       3       1       1       1      15      13      13      11      11       2
       9       9      10       2       7       7       1       2       7       8
       6       2       4       7      10       2       3       1       1       2
       7       6       1       5       5       2       3       1       1       1
      15      13      13      11      11       2       9       9      10       2
       7       7       1       2       7       8       6       2       4       7
      10       2       3       1       1       2       7       6       1       5
       5       2       3       1       1       1      15      13      13      11
      11       2       9       9      10       2       7       7       1       2
       7       8       6       2       4       7      10       2       3       1
       1       2       7       6       1       5       5       2       3       1
       1       1      15      13      13      11      11       2       9       9
      10       2       7       7       1       2       7       8       6       2
       4       7      10       2       3       1       1       2       7       6
       1       5       5       2       3       1       1       1      15      13
      13      11      11       2       9       9      10       2       7       7
       1       2       7       8       6       2       4       7      10       2
       3       1       1       2       7       6       1       5       5       2
       3       1       1       1      15      13      13      11      11       2
       9       9      10       2       7       7       1       2       7       8
       6       2       4       7      10       2       3       1       1       2
       7       6       1       5       5       2       3       1       1       1
      15      13      13      11      11       2       9       9      10       2
       7       7       1       2       7       8       6       2       4       7
      10       2       3       1       1       2       7       6       1       5
       5       2       3       1       1       1      15      13      13      11
      11       2       9       9      10       2       7       7       1       2
       7       8       6       2       4       7      10       2       3       1
       1       2       7       6       1       5       5       2       3       1
       1       1      15      13      13      11      11       2       9       9
      10       2       7       7       1       2       7       8       6       2
       4       7      10       2       3       1       1       2       7       6
       1       5       5       2       3       1       1       1      15      13
      13      11      11       2       9       9      10       2       7       7
       1       2       7       8       6       2       4       7      10       2
       3       1       1       2       7       6       1       5       5       2
       3       1       1       1      15      13      13      11      11       2
       9       9      10       2       7       7       1       2       7       8
       6       2       4       7      10       2       3       1       1       2
       7       6       1       5       5       2       3       1       1       1
      15      13      13      11      11       2       9       9      10       2
       7       7       1       2       7       8       6       2       4       7
      10       2       3       1       1       2       7       6       1       5
       5       2       3       1       1       1      15      13      13      11
      11       2       9       9      10       2       7       7       1       2
       7       8       6       2       4       7      10       2       3       1
       1       2       7       6       1       5       5       2       3       1
       1       1      15      13      13      11      11       2       9       9
      10       2       7       7       1       2       7       8       6       2
       4       7      10       2       3       1       1       2       7       6
       1       5       5       2       3       1       1       1      15      13
      13      11      11       2       9       9      10       2       7       7
       1       2       7       8       6       2       4       7      10       2
       3       1       1       2       7       6       1       5       5       2
       3       1       1       1      15      13      13      11      11       2
       9       9      10       2       7       7       1       2       7       8
       6       2       4       7      10       2       3       1       1       2
       7       6       1       5       5       2       3       1       1       1
      15      13      13      11      11       2       9       9      10       2
       7       7       1       2       7       8       6       2       4       7
      10       2       3       1       1       2       7       6       1       5
       5       2       3       1       1       1      15      13      13      11
      11       2       9       9      10       2       7       7       1       2
       7       8       6       2       4       7      10       2       3       1
       1       2       7       6       1       5       5       2       3       1
       1       1      15      13      13      11      11       2       9       9
      10       2       7       7       1       2       7       8       6       2
       4       7      10       2       3       1       1       2       7       6
       1       5       5       2       3       1       1       1      15      13
      13      11      11       2       9       9      10       2       7       7
       1       2       7       8       6       2       4       7      10       2
       3       1       1       2       7       6       1       5       5       2
       3       1       1       1      15      13      13      11      11       2
       9       9      10       2       7       7       1       2       7       8
       6       2       4       7      10       2       3       1       1       2
       7       6       1       5       5       2       3       1       1       1
      15      13      13      11      11       2       9       9      10       2
       7       7       1       2       7       8       6       2       4       7
      10       2       3       1       1       2       7       6       1       5
       5       2       3       1       1       1      15      13      13      11
      11       2       9       9      10       2       7       7       1       2
       7       8       6       2       4       7      10       2       3       1
       1       2       7       6       1       5       5       2       3       1
       1       1      15      13      13      11      11       2       9       9
      10       2       7       7       1       2       7       8       6       2
       4       7      10       2       3       1       1       2       7       6
       1       5       5       2       3       1       1       1      15      13
      13      11      11       2       9       9      10       2       7       7
       1       2       7       8       6       2       4       7      10       2
       3       1       1       2       7       6       1       5       5       2
       3       1       1       1      15      13      13      11      11       2
       9       9      10       2       7       7       1       2       7       8
       6       2       4       7      10       2       3       1       1       2
       7       6       1       5       5       2       3       1       1       1
      15      13      13      11      11       2       9       9      10       2
       7       7       1       2       7       8       6       2       4       7
      10       2       3       1       1       2       7       6       1       5
       5       2       3       1       1       1      15      13      13      11
      11       2       9       9      10       2       7       7       1       2
       7       8       6       2       4       7      10       2       3       1
       1       2       7       6       1       5       5       2       3       1
       1       1      15      13      13      11      11       2       9       9
      10       2       7       7       1       2       7       8       6       2
       4       7      10       2       3       1       1       2       7       6
       1       5       5       2       3       1       1       1      15      13
      13      11      11       2       9       9      10       2       7       7
       1       2       7       8       6       2       4       7      10       2
       3       1       1       2       7       6       1       5       5       2
       3       1       1       1      15      13      13      11      11       2
       9       9      10       2       7       7       1       2       7       8
       6       2       4       7      10       2       3       1       1       2
       7       6       1       5       5       2       3       1       1       1
      15      13      13      11      11       2       9       9      10       2
       7       7       1       2       7       8       6       2       4       7
      10       2       3       1       1       2       7       6       1       5
       5       2       3       1       1       1      15      13      13      11
      11       2       9       9      10       2       7       7       1       2
       7       8       6       2       4       7      10       2       3       1
       1       2       7       6       1       5       5       2       3       1
       1       1      15      13      13      11      11       2       9       9
      10       2       7       7       1       2       7       8       6       2
       4       7      10       2       3       1       1       2       7       6
       1       5       5       2       3       1       1       1      15      13
      13      11      11       2       9       9      10       2       7       7
       1       2       7       8       6       2       4       7      10       2
       3       1       1       2       7       6       1       5       5       2
       3       1       1       1      15      13      13      11      11       2
       9       9      10       2       7       7       1       2       7       8
       6       2       4       7      10       2       3       1       1       2
       7       6       1       5       5       2       3       1       1       1
      15      13      13      11      11       2       9       9      10       2
       7       7       1       2       7       8       6       2       4       7
      10       2       3       1       1       2       7       6       1       5
       5       2       3       1       1       1      15      13      13      11
      11       2       9       9      10       2       7       7       1       2
       7       8       6       2       4       7      10       2       3       1
       1       2       7       6       1       5       5       2       3       1
       1       1      15      13      13      11      11       2       9       9
      10       2       7       7       1       2       7       8       6       2
       4       7      10       2       3       1       1       2       7       6
       1       5       5       2       3       1       1       1      15      13
      13      11      11       2       9       9      10       2       7       7
       1       2       7       8       6       2       4       7      10       2
       3       1       1       2       7       6       1       5       5       2
       3       1       1       1      15      13      13      11      11       2
       9       9      10       2       7       7       1       2       7       8
       6       2       4       7      10       2       3       1       1       2
       7       6       1       5       5       2       3       1       1       1
      15      13      13      11      11       2       9       9      10       2
       7       7       1       2       7       8       6       2       4       7
      10       2       3       1       1       2       7       6       1       5
       5       2       3       1       1       1      15      13      13      11
      11       2       9       9      10       2       7       7       1       2
       7       8       6       2       4       7      10       2       3       1
       1       2       7       6       1       5       5       2       3       1
       1       1      15      13      13      11      11       2       9       9
      10       2       7       7       1       2       7       8       6       2
       4       7      10       2       3       1       1       2       7       6
       1       5       5       2       3       1       1       1      15      13
      13      11      11       2       9       9      10       2       7       7
       1       2       7       8       6       2       4       7      10       2
       3       1       1       2       7       6       1       5       5       2
       3       1       1       1      15      13      13      11      11       2
       9       9      10       2       7       7       1       2       7       8
       6       2       4       7      10       2       3       1       1       2
       7       6       1       5       5       2       3       1       1       1
      15      13      13      11      11       2       9       9      10       2
       7       7       1       2       7       8       6       2       4       7
      10       2       3       1       1       2       7       6       1       5
       5       2       3       1       1       1      15      13      13      11
      11       2       9       9      10       2       7       7       1       2
       7       8       6       2       4       7      10       2       3       1
       1       2       7       6       1       5       5       2       3       1
       1       1      15      13      13      11      11       2       9       9
      10       2       7       7       1       2       7       8       6       2
       4       7      10       2       3       1       1       2       7       6
       1       5       5       2       3       1       1       1      15      13
      13      11      11       2       9       9      10       2       7       7
       1       2       7       8       6       2       4       7      10       2
       3       1       1       2       7       6       1       5       5       2
       3       1       1       1      15      13      13      11      11       2
       9       9      10       2       7       7       1       2       7       8
       6       2       4       7      10       2       3       1       1       2
       7       6       1       5       5       2       3       1       1       1
      15      13      13      11      11       2       9       9      10       2
       7       7       1       2       7       8       6       2       4       7
      10       2       3       1       1       2       7       6       1       5
       5       2       3       1       1       1      15      13      13      11
      11       2       9       9      10       2       7       7       1       2
       7       8       6       2       4       7      10       2       3       1
       1       2       7       6       1       5       5       2       3       1
       1       1      15      13      13      11      11       2       9       9
      10       2       7       7       1       2       7       8       6       2
       4       7      10       2       3       1       1       2       7       6
       1       5       5       2       3       1       1       1      15      13
      13      11      11       2       9       9      10       2       7       7
       1       2       7       8       6       2       4       7      10       2
       3       1       1       2       7       6       1       5       5       2
       3       1       1       1      15      13      13      11      11       2
       9       9      10       2       7       7       1       2       7       8
       6       2       4       7      10       2       3       1       1       2
       7       6       1       5       5       2       3       1       1       1
      15      13      13      11      11       2       9       9      10       2
       7       7       1       2       7       8       6       2       4       7
      10       2       3       1       1       2       7       6       1       5
       5       2       3       1       1       1      15      13      13      11
      11       2       9       9      10       2       7       7       1       2
       7       8       6       2       4       7      10       2       3       1
       1       2       7       6       1       5       5       2       3       1
       1       1      15      13      13      11      11       2       9       9
      10       2       7       7       1       2       7       8       6       2
       4       7      10       2       3       1       1       2       7       6
       1       5       5       2       3       1       1       1      15      13
      13      11      11       2       9       9      10       2       7       7
       1       2       7       8       6       2       4       7      10       2
       3       1       1       2       7       6       1       5       5       2
       3       1       1       1      15      13      13      11      11       2
       9       9      10       2       7       7       1       2       7       8
       6       2       4       7      10       2       3       1       1       2
       7       6       1       5       5       2       3       1       1       1
      15      13      13      11      11       2       9       9      10       2
       7       7       1       2       7       8       6       2       4       7
      10       2       3       1       1       2       7       6       1       5
       5       2       3       1       1       1      15      13      13      11
      11       2       9       9      10       2       7       7       1       2
       7       8       6       2       4       7      10       2       3       1
       1       2       7       6       1       5       5       2       3       1
       1       1      15      13      13      11      11       2       9       9
      10       2       7       7       1       2       7       8       6       2
       4       7      10       2       3       1       1       2       7       6
       1       5       5       2       3       1       1       1      15      13
      13      11      11       2       9       9      10       2       7       7
       1       2       7       8       6       2       4       7      10       2
       3       1       1       2       7       6       1       5       5       2
       3       1       1       1      15      13      13      11      11       2
       9       9      10       2       7       7       1       2       7       8
       6       2       4       7      10       2       3       1       1       2
       7       6       1       5       5       2       3       1       1       1
      15      13      13      11      11       2       9       9      10       2
       7       7       1       2       7       8       6       2       4       7
      10       2       3       1       1       2       7       6       1       5
       5       2       3       1       1       1      15      13      13      11
      11       2       9       9      10       2       7       7       1       2
       7       8       6       2       4       7      10       2       3       1
       1       2       7       6       1       5       5       2       3       1
       1       1      15      13      13      11      11       2       9       9
      10       2       7       7       1       2       7       8       6       2
       4       7      10       2       3       1       1       2       7       6
       1       5       5       2       3       1       1       1      15      13
      13      11      11       2       9       9      10       2       7       7
       1       2       7       8       6       2       4       7      10       2
       3       1       1       2       7       6       1       5       5       2
       3       1       1       1      15      13      13      11      11       2
       9       9      10       2       7       7       1       2       7       8
       6       2       4       7      10       2       3       1       1       2
       7       6       1       5       5       2       3       1       1       1
      15      13      13      11      11       2       9       9      10       2
       7       7       1       2       7       8       6       2       4       7
      10       2       3       1       1       2       7       6       1       5
       5       2       3       1       1       1      15      13      13      11
      11       2       9       9      10       2       7       7       1       2
       7       8       6       2       4       7      10       2       3       1
       1       2       7       6       1       5       5       2       3       1
       1       1      15      13      13      11      11       2       9       9
      10       2       7       7       1       2       7       8       6       2
       4       7      10       2       3       1       1       2       7       6
       1       5       5       2       3       1       1       1      15      13
      13      11      11       2       9       9      10       2       7       7
       1       2       7       8       6       2       4       7      10       2
       3       1       1       2       7       6       1       5       5       2
       3       1       1       1      15      13      13      11      11       2
       9       9      10       2       7       7       1       2       7       8
       6       2       4       7      10       2       3       1       1       2
       7       6       1       5       5       2       3       1       1       1
      15      13      13      11      11       2       9       9      10       2
       7       7       1       2       7       8       6       2       4       7
      10       2       3       1       1       2       7       6       1       5
       5       2       3       1       1       1      15      13      13      11
      11       2       9       9      10       2       7       7       1       2
       7       8       6       2       4       7      10       2       3       1
       1       2       7       6       1       5       5       2       3       1
       1       1      15      13      13      11      11       2       9       9
      10       2       7       7       1       2       7       8       6       2
       4       7      10       2       3       1       1       2       7       6
       1       5       5       2       3       1       1       1      15      13
      13      11      11       2       9       9      10       2       7       7
       1       2       7       8       6       2       4       7      10       2
       3       1       1       2       7       6       1       5       5       2
       3       1       1       1      15      13      13      11      11       2
       9       9      10       2       7       7       1       2       7       8
       6       2       4       7      10       2       3       1       1       2
       7       6       1       5       5       2       3       1       1       1
      15      13      13      11      11       2       9       9      10       2
       7       7       1       2       7       8       6       2       4       7
      10       2       3       1       1       2       7       6       1       5
       5       2       3       1       1       1      15      13      13      11
      11       2       9       9      10       2       7       7       1       2
       7       8       6       2       4       7      10       2       3       1
       1       2       7       6       1       5       5       2       3       1
       1       1      15      13      13      11      11       2       9       9
      10       2       7       7       1       2       7       8       6       2
       4       7      10       2       3       1       1       2       7       6
       1       5       5       2       3       1       1       1      15      13
      13      11      11       2       9       9      10       2       7       7
       1       2       7       8       6       2       4       7      10       2
       3       1       1       2       7       6       1       5       5       2
       3       1       1       1      15      13      13      11      11       2
       9       9      10       2       7       7       1       2       7       8
       6       2       4       7      10       2       3       1       1       2
       7       6       1       5       5       2       3       1       1       1
      15      13      13      11      11       2       9       9      10       2
       7       7       1       2       7       8       6       2       4       7
      10       2       3       1       1       2       7       6       1       5
       5       2       3       1       1       1      15      13      13      11
      11       2       9       9      10       2       7       7       1       2
       7       8       6       2       4       7      10       2       3       1
       1       2       7       6       1       5       5       2       3       1
       1       1      15      13      13      11      11       2       9       9
      10       2       7       7       1       2       7       8       6       2
       4       7      10       2       3       1       1       2       7       6
       1       5       5       2       3       1       1       1      15      13
      13      11      11       2       9       9      10       2       7       7
       1       2       7       8       6       2       4       7      10       2
       3       1       1       2       7       6       1       5       5       2
       3       1       1       1      15      13      13      11      11       2
       9       9      10       2       7       7       1       2       7       8
       6       2       4       7      10       2       3       1       1       2
       7       6       1       5       5       2       3       1       1       1
      15      13      13      11      11       2       9       9      10       2
       7       7       1       2       7       8       6       2       4       7
      10       2       3       1       1       2       7       6       1       5
       5       2       3       1       1       1      15      13      13      11
      11       2       9       9      10       2       7       7       1       2
       7       8       6       2       4       7      10       2       3       1
       1       2       7       6       1       5       5       2       3       1
       1       1      15      13      13      11      11       2       9       9
      10       2       7       7       1       2       7       8       6       2
       4       7      10       2       3       1       1       2       7       6
       1       5       5       2       3       1       1       1      15      13
      13      11      11       2       9       9      10       2       7       7
       1       2       7       8       6       2       4       7      10       2
       3       1       1       2       7       6       1       5       5       2
       3       1       1       1      15      13      13      11      11       2
       9       9      10       2       7       7       1       2       7       8
       6       2       4       7      10       2       3       1       1       2
       7       6       1       5       5       2       3       1       1       1
      15      13      13      11      11       2       9       9      10       2
       7       7       1       2       7       8       6       2       4       7
      10       2       3       1       1       2       7       6       1       5
       5       2       3       1       1       1      15      13      13      11
      11       2       9       9      10       2       7       7       1       2
       7       8       6       2       4       7      10       2       3       1
       1       2       7       6       1       5       5       2       3       1
       1       1      15      13      13      11      11       2       9       9
      10       2       7       7       1       2       7       8       6       2
       4       7      10       2       3       1       1       2       7       6
       1       5       5       2       3       1       1       1      15      13
      13      11      11       2       9       9      10       2       7       7
       1       2       7       8       6       2       4       7      10       2
       3       1       1       2       7       6       1       5       5       2
       3       1       1       1      15      13      13      11      11       2
       9       9      10       2       7       7       1       2       7       8
       6       2       4       7      10       2       3       1       1       2
       7       6       1       5       5       2       3       1       1       1
      15      13      13      11      11       2       9       9      10       2
       7       7       1       2       7       8       6       2       4       7
      10       2       3       1       1       2       7       6       1       5
       5       2       3       1       1       1      15      13      13      11
      11       2       9       9      10       2       7       7       1       2
       7       8       6       2       4       7      10       2       3       1
       1       2       7       6       1       5       5       2       3       1
       1       1      15      13      13      11      11       2       9       9
      10       2       7       7       1       2       7       8       6       2
       4       7      10       2       3       1       1       2       7       6
       1       5       5       2       3       1       1       1      15      13
      13      11      11       2       9       9      10       2       7       7
       1       2       7       8       6       2       4       7      10       2
       3       1       1       2       7       6       1       5       5       2
       3       1       1       1      15      13      13      11      11       2
       9       9      10       2       7       7       1       2       7       8
       6       2       4       7      10       2       3       1       1       2
       7       6       1       5       5       2       3       1       1       1
      15      13      13      11      11       2       9       9      10       2
       7       7       1       2       7       8       6       2       4       7
      10       2       3       1       1       2       7       6       1       5
       5       2       3       1       1       1      15      13      13      11
      11       2       9       9      10       2       7       7       1       2
       7       8       6       2       4       7      10       2       3       1
       1       2       7       6       1       5       5       2       3       1
       1       1      15      13      13      11      11       2       9       9
      10       2       7       7       1       2       7       8       6       2
       4       7      10       2       3       1       1       2       7       6
       1       5       5       2       3       1       1       1      15      13
      13      11      11       2       9       9      10       2       7       7
       1       2       7       8       6       2       4       7      10       2
       3       1       1       2       7       6       1       5       5       2
       3       1       1       1      15      13      13      11      11       2
       9       9      10       2       7       7       1       2       7       8
       6       2       4       7      10       2       3       1       1       2
       7       6       1       5       5       2       3       1       1       1
%FLAG NONBONDED_PARM_INDEX                                                      
%FORMAT(10I8)                                                                   
       1       2       2       3
%FLAG RESIDUE_LABEL                                                             
%FORMAT(20a4)                                                                   
PEN PEN PEN PEN PEN PEN PEN PEN PEN PEN PEN PEN PEN PEN PEN PEN PEN PEN PEN PEN 
PEN PEN PEN PEN PEN PEN PEN PEN PEN PEN PEN PEN PEN PEN PEN PEN PEN PEN PEN PEN 
PEN PEN PEN PEN PEN PEN PEN PEN PEN PEN PEN PEN PEN PEN PEN PEN PEN PEN PEN PEN 
PEN PEN PEN PEN PEN PEN PEN PEN PEN PEN PEN PEN PEN PEN PEN PEN PEN PEN PEN PEN 
PEN PEN PEN PEN PEN PEN PEN PEN PEN PEN PEN PEN PEN PEN PEN PEN PEN PEN PEN PEN 
PEN PEN PEN PEN PEN PEN PEN PEN PEN PEN PEN PEN PEN PEN PEN PEN PEN PEN PEN PEN 
PEN PEN PEN PEN PEN PEN PEN PEN PEN PEN PEN PEN PEN PEN PEN PEN PEN PEN PEN PEN 
PEN PEN PEN PEN PEN PEN PEN PEN PEN PEN PEN PEN PEN PEN PEN PEN PEN PEN PEN PEN 
PEN PEN PEN PEN PEN PEN PEN PEN PEN PEN PEN PEN PEN PEN PEN PEN PEN PEN PEN PEN 
PEN PEN PEN PEN PEN PEN PEN PEN PEN PEN PEN PEN PEN PEN PEN PEN PEN PEN PEN PEN 
PEN PEN PEN PEN PEN PEN PEN PEN PEN PEN PEN PEN PEN PEN PEN PEN PEN PEN PEN PEN 
PEN PEN PEN PEN PEN PEN PEN PEN PEN PEN PEN PEN PEN PEN PEN PEN PEN PEN PEN PEN 
PEN PEN PEN PEN PEN PEN PEN PEN PEN PEN 
%FLAG RESIDUE_POINTER                                                           
%FORMAT(10I8)                                                                   
       1      37      73     109     145     181     217     253     289     325
     361     397     433     469     505     541     577     613     649     685
     721     757     793     829     865     901     937     973    1009    1045
    1081    1117    1153    1189    1225    1261    1297    1333    1369    1405
    1441    1477    1513    1549    1585    1621    1657    1693    1729    1765
    1801    1837    1873    1909    1945    1981    2017    2053    2089    2125
    2161    2197    2233    2269    2305    2341    2377    2413    2449    2485
    2521    2557    2593    2629    2665    2701    2737    2773    2809    2845
    2881    2917    2953    2989    3025    3061    3097    3133    3169    3205
    3241    3277    3313    3349    3385    3421    3457    3493    3529    3565
    3601    3637    3673    3709    3745    3781    3817    3853    3889    3925
    3961    3997    4033    4069    4105    4141    4177    4213    4249    4285
    4321    4357    4393    4429    4465    4501    4537    4573    4609    4645
    4681    4717    4753    4789    4825    4861    4897    4933    4969    5005
    5041    5077    5113    5149    5185    5221    5257    5293    5329    5365
    5401    5437    5473    5509    5545    5581    5617    5653    5689    5725
    5761    5797    5833    5869    5905    5941    5977    6013    6049    6085
    6121    6157    6193    6229    6265    6301    6337    6373    6409    6445
    6481    6517    6553    6589    6625    6661    6697    6733    6769    6805
    6841    6877    6913    6949    6985    7021    7057    7093    7129    7165
    7201    7237    7273    7309    7345    7381    7417    7453    7489    7525
    7561    7597    7633    7669    7705    7741    7777    7813    7849    7885
    7921    7957    7993    8029    8065    8101    8137    8173    8209    8245
    8281    8317    8353    8389    8425    8461    8497    8533    8569    8605
    8641    8677    8713    8749    8785    8821    8857    8893    8929    8965
%FLAG BOND_FORCE_CONSTANT                                                       
%FORMAT(5E16.8)                                                                 
  3.60690000E+02  3.54250000E+02
%FLAG BOND_EQUIL_VALUE                                                          
%FORMAT(5E16.8)                                                                 
  1.08600000E+00  1.39860000E+00
%FLAG ANGLE_FORCE_CONSTANT                                                      
%FORMAT(5E16.8)                                                                 
  4.49000000E+01  6.36700000E+01
%FLAG ANGLE_EQUIL_VALUE                                                         
%FORMAT(5E16.8)                                                                 
  2.09230160E+00  2.09474507E+00
%FLAG DIHEDRAL_FORCE_CONSTANT                                                   
%FORMAT(5E16.8)                                                                 
  3.62500000E+00  1.10000000E+00
%FLAG DIHEDRAL_PERIODICITY                                                      
%FORMAT(5E16.8)                                                                 
  2.00000000E+00  2.00000000E+00
%FLAG DIHEDRAL_PHASE                                                            
%FORMAT(5E16.8)                                                                 
  3.14159400E+00  3.14159400E+00
%FLAG SCEE_SCALE_FACTOR                                                         
%FORMAT(5E16.8)                                                                 
  1.20000000E+00  0.00000000E+00
%FLAG SCNB_SCALE_FACTOR                                                         
%FORMAT(5E16.8)                                                                 
  2.00000000E+00  0.00000000E+00
%FLAG SOLTY                                                                     
%FORMAT(5E16.8)                                                                 
  0.00000000E+00  0.00000000E+00
%FLAG LENNARD_JONES_ACOEF                                                       
%FORMAT(5E16.8)                                                                 
  6.96551276E+05  7.52549148E+04  6.90855956E+03
%FLAG LENNARD_JONES_BCOEF                                                       
%FORMAT(5E16.8)                                                                 
  5.24668528E+02  1.09570372E+02  2.10929191E+01
%FLAG BONDS_INC_HYDROGEN                                                        
%FORMAT(10I8)                                                                   
      96     105       1      90     102       1      87      99       1      81
      93       1      66      84       1      57      75       1      54      72
       1      48      69       1      45      63       1      30      51       1
      21      39       1      18      36       1       9      27       1       3
      15       1     204     213       1     198     210       1     195     207
       1     189     201       1     174     192       1     165     183       1
     162     180       1     156     177       1     153     171       1     138
     159       1     129     147       1     126     144       1     117     135
       1     111     123       1     312     321       1     306     318       1
     303     315       1     297     309       1     282     300       1     273
     291       1     270     288       1     264     285       1     261     279
       1     246     267       1     237     255       1     234     252       1
     225     243       1     219     231       1     420     429       1     414
     426       1     411     423       1     405     417       1     390     408
       1     381     399       1     378     396       1     372     393       1
     369     387       1     354     375       1     345     363       1     342
     360       1     333     351       1     327     339       1     528     537
       1     522     534       1     519     531       1     513     525       1
     498     516       1     489     507       1     486     504       1     480
     501       1     477     495       1     462     483       1     453     471
       1     450     468       1     441     459       1     435     447       1
     636     645       1     630     642       1     627     639       1     621
     633       1     606     624       1     597     615       1     594     612
       1     588     609       1     585     603       1     570     591       1
     561     579       1     558     576       1     549     567       1     543
     555       1     744     753       1     738     750       1     735     747
       1     729     741       1     714     732       1     705     723       1
     702     720       1     696     717       1     693     711       1     678
     699       1     669     687       1     666     684       1     657     675
       1     651     663       1     852     861       1     846     858       1
     843     855       1     837     849       1     822     840       1     813
     831       1     810     828       1     804     825       1     801     819
       1     786     807       1     777     795       1     774     792       1
     765     783       1     759     771       1     960     969       1     954
     966       1     951     963       1     945     957       1     930     948
       1     921     939       1     918     936       1     912     933       1
     909     927       1     894     915       1     885     903       1     882
     900       1     873     891       1     867     879       1    1068    1077
       1    1062    1074       1    1059    1071       1    1053    1065       1
    1038    1056       1    1029    1047       1    1026    1044       1    1020
    1041       1    1017    1035       1    1002    1023       1     993    1011
       1     990    1008       1     981     999       1     975     987       1
    1176    1185       1    1170    1182       1    1167    1179       1    1161
    1173       1    1146    1164       1    1137    1155       1    1134    1152
       1    1128    1149       1    1125    1143       1    1110    1131       1
    1101    1119       1    1098    1116       1    1089    1107       1    1083
    1095       1    1284    1293       1    1278    1290       1    1275    1287
       1    1269    1281       1    1254    1272       1    1245    1263       1
    1242    1260       1    1236    1257       1    1233    1251       1    1218
    1239       1    1209    1227       1    1206    1224       1    1197    1215
       1    1191    1203       1    1392    1401       1    1386    1398       1
    1383    1395       1    1377    1389       1    1362    1380       1    1353
    1371       1    1350    1368       1    1344    1365       1    1341    1359
       1    1326    1347       1    1317    1335       1    1314    1332       1
    1305    1323       1    1299    1311       1    1500    1509       1    1494
    1506       1    1491    1503       1    1485    1497       1    1470    1488
       1    1461    1479       1    1458    1476       1    1452    1473       1
    1449    1467       1    1434    1455       1    1425    1443       1    1422
    1440       1    1413    1431       1    1407    1419       1    1608    1617
       1    1602    1614       1    1599    1611       1    1593    1605       1
    1578    1596       1    1569    1587       1    1566    1584       1    1560
    1581       1    1557    1575       1    1542    1563       1    1533    1551
       1    1530    1548       1    1521    1539       1    1515    1527       1
    1716    1725       1    1710    1722       1    1707    1719       1    1701
    1713       1    1686    1704       1    1677    1695       1    1674    1692
       1    1668    1689       1    1665    1683       1    1650    1671       1
    1641    1659       1    1638    1656       1    1629    1647       1    1623
    1635       1    1824    1833       1    1818    1830       1    1815    1827
       1    1809    1821       1    1794    1812       1    1785    1803       1
    1782    1800       1    1776    1797       1    1773    1791       1    1758
    1779       1    1749    1767       1    1746    1764       1    1737    1755
       1    1731    1743       1    1932    1941       1    1926    1938       1
    1923    1935       1    1917    1929       1    1902    1920       1    1893
    1911       1    1890    1908       1    1884    1905       1    1881    1899
       1    1866    1887       1    1857    1875       1    1854    1872       1
    1845    1863       1    1839    1851       1    2040    2049       1    2034
    2046       1    2031    2043       1    2025    2037       1    2010    2028
       1    2001    2019       1    1998    2016       1    1992    2013       1
    1989    2007       1    1974    1995       1    1965    1983       1    1962
    1980       1    1953    1971       1    1947    1959       1    2148    2157
       1    2142    2154       1    2139    2151       1    2133    2145       1
    2118    2136       1    2109    2127       1    2106    2124       1    2100
    2121       1    2097    2115       1    2082    2103       1    2073    2091
       1    2070    2088       1    2061    2079       1    2055    2067       1
    2256    2265       1    2250    2262       1    2247    2259       1    2241
    2253       1    2226    2244       1    2217    2235       1    2214    2232
       1    2208    2229       1    2205    2223       1    2190    2211       1
    2181    2199       1    2178    2196       1    2169    2187       1    2163
    2175       1    2364    2373       1    2358    2370       1    2355    2367
       1    2349    2361       1    2334    2352       1    2325    2343       1
    2322    2340       1    2316    2337       1    2313    2331       1    2298
    2319       1    2289    2307       1    2286    2304       1    2277    2295
       1    2271    2283       1    2472    2481       1    2466    2478       1
    2463    2475       1    2457    2469       1    2442    2460       1    2433
    2451       1    2430    2448       1    2424    2445       1    2421    2439
       1    2406    2427       1    2397    2415       1    2394    2412       1
    2385    2403       1    2379    2391       1    2580    2589       1    2574
    2586       1    2571    2583       1    2565    2577       1    2550    2568
       1    2541    2559       1    2538    2556       1    2532    2553       1
    2529    2547       1    2514    2535       1    2505    2523       1    2502
    2520       1    2493    2511       1    2487    2499       1    2688    2697
       1    2682    2694       1    2679    2691       1    2673    2685       1
    2658    2676       1    2649    2667       1    2646    2664       1    2640
    2661       1    2637    2655       1    2622    2643       1    2613    2631
       1    2610    2628       1    2601    2619       1    2595    2607       1
    2796    2805       1    2790    2802       1    2787    2799       1    2781
    2793       1    2766    2784       1    2757    2775       1    2754    2772
       1    2748    2769       1    2745    2763       1    2730    2751       1
    2721    2739       1    2718    2736       1    2709    2727       1    2703
    2715       1    2904    2913       1    2898    2910       1    2895    2907
       1    2889    2901       1    2874    2892       1    2865    2883       1
    2862    2880       1    2856    2877       1    2853    2871       1    2838
    2859       1    2829    2847       1    2826    2844       1    2817    2835
       1    2811    2823       1    3012    3021       1    3006    3018       1
    3003    3015       1    2997    3009       1    2982    3000       1    2973
    2991       1    2970    2988       1    2964    2985       1    2961    2979
       1    2946    2967       1    2937    2955       1    2934    2952       1
    2925    2943       1    2919    2931       1    3120    3129       1    3114
    3126       1    3111    3123       1    3105    3117       1    3090    3108
       1    3081    3099       1    3078    3096       1    3072    3093       1
    3069    3087       1    3054    3075       1    3045    3063       1    3042
    3060       1    3033    3051       1    3027    3039       1    3228    3237
       1    3222    3234       1    3219    3231       1    3213    3225       1
    3198    3216       1    3189    3207       1    3186    3204       1    3180
    3201       1    3177    3195       1    3162    3183       1    3153    3171
       1    3150    3168       1    3141    3159       1    3135    3147       1
    3336    3345       1    3330    3342       1    3327    3339       1    3321
    3333       1    3306    3324       1    3297    3315       1    3294    3312
       1    3288    3309       1    3285    3303       1    3270    3291       1
    3261    3279       1    3258    3276       1    3249    3267       1    3243
    3255       1    3444    3453       1    3438    3450       1    3435    3447
       1    3429    3441       1    3414    3432       1    3405    3423       1
    3402    3420       1    3396    3417       1    3393    3411       1    3378
    3399       1    3369    3387       1    3366    3384       1    3357    3375
       1    3351    3363       1    3552    3561       1    3546    3558       1
    3543    3555       1    3537    3549       1    3522    3540       1    3513
    3531       1    3510    3528       1    3504    3525       1    3501    3519
       1    3486    3507       1    3477    3495       1    3474    3492       1
    3465    3483       1    3459    3471       1    3660    3669       1    3654
    3666       1    3651    3663       1    3645    3657       1    3630    3648
       1    3621    3639       1    3618    3636       1    3612    3633       1
    3609    3627       1    3594    3615       1    3585    3603       1    3582
    3600       1    3573    3591       1    3567    3579       1    3768    3777
       1    3762    3774       1    3759    3771       1    3753    3765       1
    3738    3756       1    3729    3747       1    3726    3744       1    3720
    3741       1    3717    3735       1    3702    3723       1    3693    3711
       1    3690    3708       1    3681    3699       1    3675    3687       1
    3876    3885       1    3870    3882       1    3867    3879       1    3861
    3873       1    3846    3864       1    3837    3855       1    3834    3852
       1    3828    3849       1    3825    3843       1    3810    3831       1
    3801    3819       1    3798    3816       1    3789    3807       1    3783
    3795       1    3984    3993       1    3978    3990       1    3975    3987
       1    3969    3981       1    3954    3972       1    3945    3963       1
    3942    3960       1    3936    3957       1    3933    3951       1    3918
    3939       1    3909    3927       1    3906    3924       1    3897    3915
       1    3891    3903       1    4092    4101       1    4086    4098       1
    4083    4095       1    4077    4089       1    4062    4080       1    4053
    4071       1    4050    4068       1    4044    4065       1    4041    4059
       1    4026    4047       1    4017    4035       1    4014    4032       1
    4005    4023       1    3999    4011       1    4200    4209       1    4194
    4206       1    4191    4203       1    4185    4197       1    4170    4188
       1    4161    4179       1    4158    4176       1    4152    4173       1
    4149    4167       1    4134    4155       1    4125    4143       1    4122
    4140       1    4113    4131       1    4107    4119       1    4308    4317
       1    4302    4314       1    4299    4311       1    4293    4305       1
    4278    4296       1    4269    4287       1    4266    4284       1    4260
    4281       1    4257    4275       1    4242    4263       1    4233    4251
       1    4230    4248       1    4221    4239       1    4215    4227       1
    4416    4425       1    4410    4422       1    4407    4419       1    4401
    4413       1    4386    4404       1    4377    4395       1    4374    4392
       1    4368    4389       1    4365    4383       1    4350    4371       1
    4341    4359       1    4338    4356       1    4329    4347       1    4323
    4335       1    4524    4533       1    4518    4530       1    4515    4527
       1    4509    4521       1    4494    4512       1    4485    4503       1
    4482    4500       1    4476    4497       1    4473    4491       1    4458
    4479       1    4449    4467       1    4446    4464       1    4437    4455
       1    4431    4443       1    4632    4641       1    4626    4638       1
    4623    4635       1    4617    4629       1    4602    4620       1    4593
    4611       1    4590    4608       1    4584    4605       1    4581    4599
       1    4566    4587       1    4557    4575       1    4554    4572       1
    4545    4563       1    4539    4551       1    4740    4749       1    4734
    4746       1    4731    4743       1    4725    4737       1    4710    4728
       1    4701    4719       1    4698    4716       1    4692    4713       1
    4689    4707       1    4674    4695       1    4665    4683       1    4662
    4680       1    4653    4671       1    4647    4659       1    4848    4857
       1    4842    4854       1    4839    4851       1    4833    4845       1
    4818    4836       1    4809    4827       1    4806    4824       1    4800
    4821       1    4797    4815       1    4782    4803       1    4773    4791
       1    4770    4788       1    4761    4779       1    4755    4767       1
    4956    4965       1    4950    4962       1    4947    4959       1    4941
    4953       1    4926    4944       1    4917    4935       1    4914    4932
       1    4908    4929       1    4905    4923       1    4890    4911       1
    4881    4899       1    4878    4896       1    4869    4887       1    4863
    4875       1    5064    5073       1    5058    5070       1    5055    5067
       1    5049    5061       1    5034    5052       1    5025    5043       1
    5022    5040       1    5016    5037       1    5013    5031       1    4998
    5019       1    4989    5007       1    4986    5004       1    4977    4995
       1    4971    4983       1    5172    5181       1    5166    5178       1
    5163    5175       1    5157    5169       1    5142    5160       1    5133
    5151       1    5130    5148       1    5124    5145       1    5121    5139
       1    5106    5127       1    5097    5115       1    5094    5112       1
    5085    5103       1    5079    5091       1    5280    5289       1    5274
    5286       1    5271    5283       1    5265    5277       1    5250    5268
       1    5241    5259       1    5238    5256       1    5232    5253       1
    5229    5247       1    5214    5235       1    5205    5223       1    5202
    5220       1    5193    5211       1    5187    5199       1    5388    5397
       1    5382    5394       1    5379    5391       1    5373    5385       1
    5358    5376       1    5349    5367       1    5346    5364       1    5340
    5361       1    5337    5355       1    5322    5343       1    5313    5331
       1    5310    5328       1    5301    5319       1    5295    5307       1
    5496    5505       1    5490    5502       1    5487    5499       1    5481
    5493       1    5466    5484       1    5457    5475       1    5454    5472
       1    5448    5469       1    5445    5463       1    5430    5451       1
    5421    5439       1    5418    5436       1    5409    5427       1    5403
    5415       1    5604    5613       1    5598    5610       1    5595    5607
       1    5589    5601       1    5574    5592       1    5565    5583       1
    5562    5580       1    5556    5577       1    5553    5571       1    5538
    5559       1    5529    5547       1    5526    5544       1    5517    5535
       1    5511    5523       1    5712    5721       1    5706    5718       1
    5703    5715       1    5697    5709       1    5682    5700       1    5673
    5691       1    5670    5688       1    5664    5685       1    5661    5679
       1    5646    5667       1    5637    5655       1    5634    5652       1
    5625    5643       1    5619    5631       1    5820    5829       1    5814
    5826       1    5811    5823       1    5805    5817       1    5790    5808
       1    5781    5799       1    5778    5796       1    5772    5793       1
    5769    5787       1    5754    5775       1    5745    5763       1    5742
    5760       1    5733    5751       1    5727    5739       1    5928    5937
       1    5922    5934       1    5919    5931       1    5913    5925       1
    5898    5916       1    5889    5907       1    5886    5904       1    5880
    5901       1    5877    5895       1    5862    5883       1    5853    5871
       1    5850    5868       1    5841    5859       1    5835    5847       1
    6036    6045       1    6030    6042       1    6027    6039       1    6021
    6033       1    6006    6024       1    5997    6015       1    5994    6012
       1    5988    6009       1    5985    6003       1    5970    5991       1
    5961    5979       1    5958    5976       1    5949    5967       1    5943
    5955       1    6144    6153       1    6138    6150       1    6135    6147
       1    6129    6141       1    6114    6132       1    6105    6123       1
    6102    6120       1    6096    6117       1    6093    6111       1    6078
    6099       1    6069    6087       1    6066    6084       1    6057    6075
       1    6051    6063       1    6252    6261       1    6246    6258       1
    6243    6255       1    6237    6249       1    6222    6240       1    6213
    6231       1    6210    6228       1    6204    6225       1    6201    6219
       1    6186    6207       1    6177    6195       1    6174    6192       1
    6165    6183       1    6159    6171       1    6360    6369       1    6354
    6366       1    6351    6363       1    6345    6357       1    6330    6348
       1    6321    6339       1    6318    6336       1    6312    6333       1
    6309    6327       1    6294    6315       1    6285    6303       1    6282
    6300       1    6273    6291       1    6267    6279       1    6468    6477
       1    6462    6474       1    6459    6471       1    6453    6465       1
    6438    6456       1    6429    6447       1    6426    6444       1    6420
    6441       1    6417    6435       1    6402    6423       1    6393    6411
       1    6390    6408       1    6381    6399       1    6375    6387       1
    6576    6585       1    6570    6582       1    6567    6579       1    6561
    6573       1    6546    6564       1    6537    6555       1    6534    6552
       1    6528    6549       1    6525    6543       1    6510    6531       1
    6501    6519       1    6498    6516       1    6489    6507       1    6483
    6495       1    6684    6693       1    6678    6690       1    6675    6687
       1    6669    6681       1    6654    6672       1    6645    6663       1
    6642    6660       1    6636    6657       1    6633    6651       1    6618
    6639       1    6609    6627       1    6606    6624       1    6597    6615
       1    6591    6603       1    6792    6801       1    6786    6798       1
    6783    6795       1    6777    6789       1    6762    6780       1    6753
    6771       1    6750    6768       1    6744    6765       1    6741    6759
       1    6726    6747       1    6717    6735       1    6714    6732       1
    6705    6723       1    6699    6711       1    6900    6909       1    6894
    6906       1    6891    6903       1    6885    6897       1    6870    6888
       1    6861    6879       1    6858    6876       1    6852    6873       1
    6849    6867       1    6834    6855       1    6825    6843       1    6822
    6840       1    6813    6831       1    6807    6819       1    7008    7017
       1    7002    7014       1    6999    7011       1    6993    7005       1
    6978    6996       1    6969    6987       1    6966    6984       1    6960
    6981       1    6957    6975       1    6942    6963       1    6933    6951
       1    6930    6948       1    6921    6939       1    6915    6927       1
    7116    7125       1    7110    7122       1    7107    7119       1    7101
    7113       1    7086    7104       1    7077    7095       1    7074    7092
       1    7068    7089       1    7065    7083       1    7050    7071       1
    7041    7059       1    7038    7056       1    7029    7047       1    7023
    7035       1    7224    7233       1    7218    7230       1    7215    7227
       1    7209    7221       1    7194    7212       1    7185    7203       1
    7182    7200       1    7176    7197       1    7173    7191       1    7158
    7179       1    7149    7167       1    7146    7164       1    7137    7155
       1    7131    7143       1    7332    7341       1    7326    7338       1
    7323    7335       1    7317    7329       1    7302    7320       1    7293
    7311       1    7290    7308       1    7284    7305       1    7281    7299
       1    7266    7287       1    7257    7275       1    7254    7272       1
    7245    7263       1    7239    7251       1    7440    7449       1    7434
    7446       1    7431    7443       1    7425    7437       1    7410    7428
       1    7401    7419       1    7398    7416       1    7392    7413       1
    7389    7407       1    7374    7395       1    7365    7383       1    7362
    7380       1    7353    7371       1    7347    7359       1    7548    7557
       1    7542    7554       1    7539    7551       1    7533    7545       1
    7518    7536       1    7509    7527       1    7506    7524       1    7500
    7521       1    7497    7515       1    7482    7503       1    7473    7491
       1    7470    7488       1    7461    7479       1    7455    7467       1
    7656    7665       1    7650    7662       1    7647    7659       1    7641
    7653       1    7626    7644       1    7617    7635       1    7614    7632
       1    7608    7629       1    7605    7623       1    7590    7611       1
    7581    7599       1    7578    7596       1    7569    7587       1    7563
    7575       1    7764    7773       1    7758    7770       1    7755    7767
       1    7749    7761       1    7734    7752       1    7725    7743       1
    7722    7740       1    7716    7737       1    7713    7731       1    7698
    7719       1    7689    7707       1    7686    7704       1    7677    7695
       1    7671    7683       1    7872    7881       1    7866    7878       1
    7863    7875       1    7857    7869       1    7842    7860       1    7833
    7851       1    7830    7848       1    7824    7845       1    7821    7839
       1    7806    7827       1    7797    7815       1    7794    7812       1
    7785    7803       1    7779    7791       1    7980    7989       1    7974
    7986       1    7971    7983       1    7965    7977       1    7950    7968
       1    7941    7959       1    7938    7956       1    7932    7953       1
    7929    7947       1    7914    7935       1    7905    7923       1    7902
    7920       1    7893    7911       1    7887    7899       1    8088    8097
       1    8082    8094       1    8079    8091       1    8073    8085       1
    8058    8076       1    8049    8067       1    8046    8064       1    8040
    8061       1    8037    8055       1    8022    8043       1    8013    8031
       1    8010    8028       1    8001    8019       1    7995    8007       1
    8196    8205       1    8190    8202       1    8187    8199       1    8181
    8193       1    8166    8184       1    8157    8175       1    8154    8172
       1    8148    8169       1    8145    8163       1    8130    8151       1
    8121    8139       1    8118    8136       1    8109    8127       1    8103
    8115       1    8304    8313       1    8298    8310       1    8295    8307
       1    8289    8301       1    8274    8292       1    8265    8283       1
    8262    8280       1    8256    8277       1    8253    8271       1    8238
    8259       1    8229    8247       1    8226    8244       1    8217    8235
       1    8211    8223       1    8412    8421       1    8406    8418       1
    8403    8415       1    8397    8409       1    8382    8400       1    8373
    8391       1    8370    8388       1    8364    8385       1    8361    8379
       1    8346    8367       1    8337    8355       1    8334    8352       1
    8325    8343       1    8319    8331       1    8520    8529       1    8514
    8526       1    8511    8523       1    8505    8517       1    8490    8508
       1    8481    8499       1    8478    8496       1    8472    8493       1
    8469    8487       1    8454    8475       1    8445    8463       1    8442
    8460       1    8433    8451       1    8427    8439       1    8628    8637
       1    8622    8634       1    8619    8631       1    8613    8625       1
    8598    8616       1    8589    8607       1    8586    8604       1    8580
    8601       1    8577    8595       1    8562    8583       1    8553    8571
       1    8550    8568       1    8541    8559       1    8535    8547       1
    8736    8745       1    8730    8742       1    8727    8739       1    8721
    8733       1    8706    8724       1    8697    8715       1    8694    8712
       1    8688    8709       1    8685    8703       1    8670    8691       1
    8661    8679       1    8658    8676       1    8649    8667       1    8643
    8655       1    8844    8853       1    8838    8850       1    8835    8847
       1    8829    8841       1    8814    8832       1    8805    8823       1
    8802    8820       1    8796    8817       1    8793    8811       1    8778
    8799       1    8769    8787       1    8766    8784       1    8757    8775
       1    8751    8763       1    8952    8961       1    8946    8958       1
    8943    8955       1    8937    8949       1    8922    8940       1    8913
    8931       1    8910    8928       1    8904    8925       1    8901    8919
       1    8886    8907       1    8877    8895       1    8874    8892       1
    8865    8883       1    8859    8871       1    9060    9069       1    9054
    9066       1    9051    9063       1    9045    9057       1    9030    9048
       1    9021    9039       1    9018    9036       1    9012    9033       1
    9009    9027       1    8994    9015       1    8985    9003       1    8982
    9000       1    8973    8991       1    8967    8979       1    9168    9177
       1    9162    9174       1    9159    9171       1    9153    9165       1
    9138    9156       1    9129    9147       1    9126    9144       1    9120
    9141       1    9117    9135       1    9102    9123       1    9093    9111
       1    9090    9108       1    9081    9099       1    9075    9087       1
    9276    9285       1    9270    9282       1    9267    9279       1    9261
    9273       1    9246    9264       1    9237    9255       1    9234    9252
       1    9228    9249       1    9225    9243       1    9210    9231       1
    9201    9219       1    9198    9216       1    9189    9207       1    9183
    9195       1    9384    9393       1    9378    9390       1    9375    9387
       1    9369    9381       1    9354    9372       1    9345    9363       1
    9342    9360       1    9336    9357       1    9333    9351       1    9318
    9339       1    9309    9327       1    9306    9324       1    9297    9315
       1    9291    9303       1    9492    9501       1    9486    9498       1
    9483    9495       1    9477    9489       1    9462    9480       1    9453
    9471       1    9450    9468       1    9444    9465       1    9441    9459
       1    9426    9447       1    9417    9435       1    9414    9432       1
    9405    9423       1    9399    9411       1    9600    9609       1    9594
    9606       1    9591    9603       1    9585    9597       1    9570    9588
       1    9561    9579       1    9558    9576       1    9552    9573       1
    9549    9567       1    9534    9555       1    9525    9543       1    9522
    9540       1    9513    9531       1    9507    9519       1    9708    9717
       1    9702    9714       1    9699    9711       1    9693    9705       1
    9678    9696       1    9669    9687       1    9666    9684       1    9660
    9681       1    9657    9675       1    9642    9663       1    9633    9651
       1    9630    9648       1    9621    9639       1    9615    9627       1
    9816    9825       1    9810    9822       1    9807    9819       1    9801
    9813       1    9786    9804       1    9777    9795       1    9774    9792
       1    9768    9789       1    9765    9783       1    9750    9771       1
    9741    9759       1    9738    9756       1    9729    9747       1    9723
    9735       1    9924    9933       1    9918    9930       1    9915    9927
       1    9909    9921       1    9894    9912       1    9885    9903       1
    9882    9900       1    9876    9897       1    9873    9891       1    9858
    9879       1    9849    9867       1    9846    9864       1    9837    9855
       1    9831    9843       1   10032   10041       1   10026   10038       1
   10023   10035       1   10017   10029       1   10002   10020       1    9993
   10011       1    9990   10008       1    9984   10005       1    9981    9999
       1    9966    9987       1    9957    9975       1    9954    9972       1
    9945    9963       1    9939    9951       1   10140   10149       1   10134
   10146       1   10131   10143       1   10125   10137       1   10110   10128
       1   10101   10119       1   10098   10116       1   10092   10113       1
   10089   10107       1   10074   10095       1   10065   10083       1   10062
   10080       1   10053   10071       1   10047   10059       1   10248   10257
       1   10242   10254       1   10239   10251       1   10233   10245       1
   10218   10236       1   10209   10227       1   10206   10224       1   10200
   10221       1   10197   10215       1   10182   10203       1   10173   10191
       1   10170   10188       1   10161   10179       1   10155   10167       1
   10356   10365       1   10350   10362       1   10347   10359       1   10341
   10353       1   10326   10344       1   10317   10335       1   10314   10332
       1   10308   10329       1   10305   10323       1   10290   10311       1
   10281   10299       1   10278   10296       1   10269   10287       1   10263
   10275       1   10464   10473       1   10458   10470       1   10455   10467
       1   10449   10461       1   10434   10452       1   10425   10443       1
   10422   10440       1   10416   10437       1   10413   10431       1   10398
   10419       1   10389   10407       1   10386   10404       1   10377   10395
       1   10371   10383       1   10572   10581       1   10566   10578       1
   10563   10575       1   10557   10569       1   10542   10560       1   10533
   10551       1   10530   10548       1   10524   10545       1   10521   10539
       1   10506   10527       1   10497   10515       1   10494   10512       1
   10485   10503       1   10479   10491       1   10680   10689       1   10674
   10686       1   10671   10683       1   10665   10677       1   10650   10668
       1   10641   10659       1   10638   10656       1   10632   10653       1
   10629   10647       1   10614   10635       1   10605   10623       1   10602
   10620       1   10593   10611       1   10587   10599       1   10788   10797
       1   10782   10794       1   10779   10791       1   10773   10785       1
   10758   10776       1   10749   10767       1   10746   10764       1   10740
   10761       1   10737   10755       1   10722   10743       1   10713   10731
       1   10710   10728       1   10701   10719       1   10695   10707       1
   10896   10905       1   10890   10902       1   10887   10899       1   10881
   10893       1   10866   10884       1   10857   10875       1   10854   10872
       1   10848   10869       1   10845   10863       1   10830   10851       1
   10821   10839       1   10818   10836       1   10809   10827       1   10803
   10815       1   11004   11013       1   10998   11010       1   10995   11007
       1   10989   11001       1   10974   10992       1   10965   10983       1
   10962   10980       1   10956   10977       1   10953   10971       1   10938
   10959       1   10929   10947       1   10926   10944       1   10917   10935
       1   10911   10923       1   11112   11121       1   11106   11118       1
   11103   11115       1   11097   11109       1   11082   11100       1   11073
   11091       1   11070   11088       1   11064   11085       1   11061   11079
       1   11046   11067       1   11037   11055       1   11034   11052       1
   11025   11043       1   11019   11031       1   11220   11229       1   11214
   11226       1   11211   11223       1   11205   11217       1   11190   11208
       1   11181   11199       1   11178   11196       1   11172   11193       1
   11169   11187       1   11154   11175       1   11145   11163       1   11142
   11160       1   11133   11151       1   11127   11139       1   11328   11337
       1   11322   11334       1   11319   11331       1   11313   11325       1
   11298   11316       1   11289   11307       1   11286   11304       1   11280
   11301       1   11277   11295       1   11262   11283       1   11253   11271
       1   11250   11268       1   11241   11259       1   11235   11247       1
   11436   11445       1   11430   11442       1   11427   11439       1   11421
   11433       1   11406   11424       1   11397   11415       1   11394   11412
       1   11388   11409       1   11385   11403       1   11370   11391       1
   11361   11379       1   11358   11376       1   11349   11367       1   11343
   11355       1   11544   11553       1   11538   11550       1   11535   11547
       1   11529   11541       1   11514   11532       1   11505   11523       1
   11502   11520       1   11496   11517       1   11493   11511       1   11478
   11499       1   11469   11487       1   11466   11484       1   11457   11475
       1   11451   11463       1   11652   11661       1   11646   11658       1
   11643   11655       1   11637   11649       1   11622   11640       1   11613
   11631       1   11610   11628       1   11604   11625       1   11601   11619
       1   11586   11607       1   11577   11595       1   11574   11592       1
   11565   11583       1   11559   11571       1   11760   11769       1   11754
   11766       1   11751   11763       1   11745   11757       1   11730   11748
       1   11721   11739       1   11718   11736       1   11712   11733       1
   11709   11727       1   11694   11715       1   11685   11703       1   11682
   11700       1   11673   11691       1   11667   11679       1   11868   11877
       1   11862   11874       1   11859   11871       1   11853   11865       1
   11838   11856       1   11829   11847       1   11826   11844       1   11820
   11841       1   11817   11835       1   11802   11823       1   11793   11811
       1   11790   11808       1   11781   11799       1   11775   11787       1
   11976   11985       1   11970   11982       1   11967   11979       1   11961
   11973       1   11946   11964       1   11937   11955       1   11934   11952
       1   11928   11949       1   11925   11943       1   11910   11931       1
   11901   11919       1   11898   11916       1   11889   11907       1   11883
   11895       1   12084   12093       1   12078   12090       1   12075   12087
       1   12069   12081       1   12054   12072       1   12045   12063       1
   12042   12060       1   12036   12057       1   12033   12051       1   12018
   12039       1   12009   12027       1   12006   12024       1   11997   12015
       1   11991   12003       1   12192   12201       1   12186   12198       1
   12183   12195       1   12177   12189       1   12162   12180       1   12153
   12171       1   12150   12168       1   12144   12165       1   12141   12159
       1   12126   12147       1   12117   12135       1   12114   12132       1
   12105   12123       1   12099   12111       1   12300   12309       1   12294
   12306       1   12291   12303       1   12285   12297       1   12270   12288
       1   12261   12279       1   12258   12276       1   12252   12273       1
   12249   12267       1   12234   12255       1   12225   12243       1   12222
   12240       1   12213   12231       1   12207   12219       1   12408   12417
       1   12402   12414       1   12399   12411       1   12393   12405       1
   12378   12396       1   12369   12387       1   12366   12384       1   12360
   12381       1   12357   12375       1   12342   12363       1   12333   12351
       1   12330   12348       1   12321   12339       1   12315   12327       1
   12516   12525       1   12510   12522       1   12507   12519       1   12501
   12513       1   12486   12504       1   12477   12495       1   12474   12492
       1   12468   12489       1   12465   12483       1   12450   12471       1
   12441   12459       1   12438   12456       1   12429   12447       1   12423
   12435       1   12624   12633       1   12618   12630       1   12615   12627
       1   12609   12621       1   12594   12612       1   12585   12603       1
   12582   12600       1   12576   12597       1   12573   12591       1   12558
   12579       1   12549   12567       1   12546   12564       1   12537   12555
       1   12531   12543       1   12732   12741       1   12726   12738       1
   12723   12735       1   12717   12729       1   12702   12720       1   12693
   12711       1   12690   12708       1   12684   12705       1   12681   12699
       1   12666   12687       1   12657   12675       1   12654   12672       1
   12645   12663       1   12639   12651       1   12840   12849       1   12834
   12846       1   12831   12843       1   12825   12837       1   12810   12828
       1   12801   12819       1   12798   12816       1   12792   12813       1
   12789   12807       1   12774   12795       1   12765   12783       1   12762
   12780       1   12753   12771       1   12747   12759       1   12948   12957
       1   12942   12954       1   12939   12951       1   12933   12945       1
   12918   12936       1   12909   12927       1   12906   12924       1   12900
   12921       1   12897   12915       1   12882   12903       1   12873   12891
       1   12870   12888       1   12861   12879       1   12855   12867       1
   13056   13065       1   13050   13062       1   13047   13059       1   13041
   13053       1   13026   13044       1   13017   13035       1   13014   13032
       1   13008   13029       1   13005   13023       1   12990   13011       1
   12981   12999       1   12978   12996       1   12969   12987       1   12963
   12975       1   13164   13173       1   13158   13170       1   13155   13167
       1   13149   13161       1   13134   13152       1   13125   13143       1
   13122   13140       1   13116   13137       1   13113   13131       1   13098
   13119       1   13089   13107       1   13086   13104       1   13077   13095
       1   13071   13083       1   13272   13281       1   13266   13278       1
   13263   13275       1   13257   13269       1   13242   13260       1   13233
   13251       1   13230   13248       1   13224   13245       1   13221   13239
       1   13206   13227       1   13197   13215       1   13194   13212       1
   13185   13203       1   13179   13191       1   13380   13389       1   13374
   13386       1   13371   13383       1   13365   13377       1   13350   13368
       1   13341   13359       1   13338   13356       1   13332   13353       1
   13329   13347       1   13314   13335       1   13305   13323       1   13302
   13320       1   13293   13311       1   13287   13299       1   13488   13497
       1   13482   13494       1   13479   13491       1   13473   13485       1
   13458   13476       1   13449   13467       1   13446   13464       1   13440
   13461       1   13437   13455       1   13422   13443       1   13413   13431
       1   13410   13428       1   13401   13419       1   13395   13407       1
   13596   13605       1   13590   13602       1   13587   13599       1   13581
   13593       1   13566   13584       1   13557   13575       1   13554   13572
       1   13548   13569       1   13545   13563       1   13530   13551       1
   13521   13539       1   13518   13536       1   13509   13527       1   13503
   13515       1   13704   13713       1   13698   13710       1   13695   13707
       1   13689   13701       1   13674   13692       1   13665   13683       1
   13662   13680       1   13656   13677       1   13653   13671       1   13638
   13659       1   13629   13647       1   13626   13644       1   13617   13635
       1   13611   13623       1   13812   13821       1   13806   13818       1
   13803   13815       1   13797   13809       1   13782   13800       1   13773
   13791       1   13770   13788       1   13764   13785       1   13761   13779
       1   13746   13767       1   13737   13755       1   13734   13752       1
   13725   13743       1   13719   13731       1   13920   13929       1   13914
   13926       1   13911   13923       1   13905   13917       1   13890   13908
       1   13881   13899       1   13878   13896       1   13872   13893       1
   13869   13887       1   13854   13875       1   13845   13863       1   13842
   13860       1   13833   13851       1   13827   13839       1   14028   14037
       1   14022   14034       1   14019   14031       1   14013   14025       1
   13998   14016       1   13989   14007       1   13986   14004       1   13980
   14001       1   13977   13995       1   13962   13983       1   13953   13971
       1   13950   13968       1   13941   13959       1   13935   13947       1
   14136   14145       1   14130   14142       1   14127   14139       1   14121
   14133       1   14106   14124       1   14097   14115       1   14094   14112
       1   14088   14109       1   14085   14103       1   14070   14091       1
   14061   14079       1   14058   14076       1   14049   14067       1   14043
   14055       1   14244   14253       1   14238   14250       1   14235   14247
       1   14229   14241       1   14214   14232       1   14205   14223       1
   14202   14220       1   14196   14217       1   14193   14211       1   14178
   14199       1   14169   14187       1   14166   14184       1   14157   14175
       1   14151   14163       1   14352   14361       1   14346   14358       1
   14343   14355       1   14337   14349       1   14322   14340       1   14313
   14331       1   14310   14328       1   14304   14325       1   14301   14319
       1   14286   14307       1   14277   14295       1   14274   14292       1
   14265   14283       1   14259   14271       1   14460   14469       1   14454
   14466       1   14451   14463       1   14445   14457       1   14430   14448
       1   14421   14439       1   14418   14436       1   14412   14433       1
   14409   14427       1   14394   14415       1   14385   14403       1   14382
   14400       1   14373   14391       1   14367   14379       1   14568   14577
       1   14562   14574       1   14559   14571       1   14553   14565       1
   14538   14556       1   14529   14547       1   14526   14544       1   14520
   14541       1   14517   14535       1   14502   14523       1   14493   14511
       1   14490   14508       1   14481   14499       1   14475   14487       1
   14676   14685       1   14670   14682       1   14667   14679       1   14661
   14673       1   14646   14664       1   14637   14655       1   14634   14652
       1   14628   14649       1   14625   14643       1   14610   14631       1
   14601   14619       1   14598   14616       1   14589   14607       1   14583
   14595       1   14784   14793       1   14778   14790       1   14775   14787
       1   14769   14781       1   14754   14772       1   14745   14763       1
   14742   14760       1   14736   14757       1   14733   14751       1   14718
   14739       1   14709   14727       1   14706   14724       1   14697   14715
       1   14691   14703       1   14892   14901       1   14886   14898       1
   14883   14895       1   14877   14889       1   14862   14880       1   14853
   14871       1   14850   14868       1   14844   14865       1   14841   14859
       1   14826   14847       1   14817   14835       1   14814   14832       1
   14805   14823       1   14799   14811       1   15000   15009       1   14994
   15006       1   14991   15003       1   14985   14997       1   14970   14988
       1   14961   14979       1   14958   14976       1   14952   14973       1
   14949   14967       1   14934   14955       1   14925   14943       1   14922
   14940       1   14913   14931       1   14907   14919       1   15108   15117
       1   15102   15114       1   15099   15111       1   15093   15105       1
   15078   15096       1   15069   15087       1   15066   15084       1   15060
   15081       1   15057   15075       1   15042   15063       1   15033   15051
       1   15030   15048       1   15021   15039       1   15015   15027       1
   15216   15225       1   15210   15222       1   15207   15219       1   15201
   15213       1   15186   15204       1   15177   15195       1   15174   15192
       1   15168   15189       1   15165   15183       1   15150   15171       1
   15141   15159       1   15138   15156       1   15129   15147       1   15123
   15135       1   15324   15333       1   15318   15330       1   15315   15327
       1   15309   15321       1   15294   15312       1   15285   15303       1
   15282   15300       1   15276   15297       1   15273   15291       1   15258
   15279       1   15249   15267       1   15246   15264       1   15237   15255
       1   15231   15243       1   15432   15441       1   15426   15438       1
   15423   15435       1   15417   15429       1   15402   15420       1   15393
   15411       1   15390   15408       1   15384   15405       1   15381   15399
       1   15366   15387       1   15357   15375       1   15354   15372       1
   15345   15363       1   15339   15351       1   15540   15549       1   15534
   15546       1   15531   15543       1   15525   15537       1   15510   15528
       1   15501   15519       1   15498   15516       1   15492   15513       1
   15489   15507       1   15474   15495       1   15465   15483       1   15462
   15480       1   15453   15471       1   15447   15459       1   15648   15657
       1   15642   15654       1   15639   15651       1   15633   15645       1
   15618   15636       1   15609   15627       1   15606   15624       1   15600
   15621       1   15597   15615       1   15582   15603       1   15573   15591
       1   15570   15588       1   15561   15579       1   15555   15567       1
   15756   15765       1   15750   15762       1   15747   15759       1   15741
   15753       1   15726   15744       1   15717   15735       1   15714   15732
       1   15708   15729       1   15705   15723       1   15690   15711       1
   15681   15699       1   15678   15696       1   15669   15687       1   15663
   15675       1   15864   15873       1   15858   15870       1   15855   15867
       1   15849   15861       1   15834   15852       1   15825   15843       1
   15822   15840       1   15816   15837       1   15813   15831       1   15798
   15819       1   15789   15807       1   15786   15804       1   15777   15795
       1   15771   15783       1   15972   15981       1   15966   15978       1
   15963   15975       1   15957   15969       1   15942   15960       1   15933
   15951       1   15930   15948       1   15924   15945       1   15921   15939
       1   15906   15927       1   15897   15915       1   15894   15912       1
   15885   15903       1   15879   15891       1   16080   16089       1   16074
   16086       1   16071   16083       1   16065   16077       1   16050   16068
       1   16041   16059       1   16038   16056       1   16032   16053       1
   16029   16047       1   16014   16035       1   16005   16023       1   16002
   16020       1   15993   16011       1   15987   15999       1   16188   16197
       1   16182   16194       1   16179   16191       1   16173   16185       1
   16158   16176       1   16149   16167       1   16146   16164       1   16140
   16161       1   16137   16155       1   16122   16143       1   16113   16131
       1   16110   16128       1   16101   16119       1   16095   16107       1
   16296   16305       1   16290   16302       1   16287   16299       1   16281
   16293       1   16266   16284       1   16257   16275       1   16254   16272
       1   16248   16269       1   16245   16263       1   16230   16251       1
   16221   16239       1   16218   16236       1   16209   16227       1   16203
   16215       1   16404   16413       1   16398   16410       1   16395   16407
       1   16389   16401       1   16374   16392       1   16365   16383       1
   16362   16380       1   16356   16377       1   16353   16371       1   16338
   16359       1   16329   16347       1   16326   16344       1   16317   16335
       1   16311   16323       1   16512   16521       1   16506   16518       1
   16503   16515       1   16497   16509       1   16482   16500       1   16473
   16491       1   16470   16488       1   16464   16485       1   16461   16479
       1   16446   16467       1   16437   16455       1   16434   16452       1
   16425   16443       1   16419   16431       1   16620   16629       1   16614
   16626       1   16611   16623       1   16605   16617       1   16590   16608
       1   16581   16599       1   16578   16596       1   16572   16593       1
   16569   16587       1   16554   16575       1   16545   16563       1   16542
   16560       1   16533   16551       1   16527   16539       1   16728   16737
       1   16722   16734       1   16719   16731       1   16713   16725       1
   16698   16716       1   16689   16707       1   16686   16704       1   16680
   16701       1   16677   16695       1   16662   16683       1   16653   16671
       1   16650   16668       1   16641   16659       1   16635   16647       1
   16836   16845       1   16830   16842       1   16827   16839       1   16821
   16833       1   16806   16824       1   16797   16815       1   16794   16812
       1   16788   16809       1   16785   16803       1   16770   16791       1
   16761   16779       1   16758   16776       1   16749   16767       1   16743
   16755       1   16944   16953       1   16938   16950       1   16935   16947
       1   16929   16941       1   16914   16932       1   16905   16923       1
   16902   16920       1   16896   16917       1   16893   16911       1   16878
   16899       1   16869   16887       1   16866   16884       1   16857   16875
       1   16851   16863       1   17052   17061       1   17046   17058       1
   17043   17055       1   17037   17049       1   17022   17040       1   17013
   17031       1   17010   17028       1   17004   17025       1   17001   17019
       1   16986   17007       1   16977   16995       1   16974   16992       1
   16965   16983       1   16959   16971       1   17160   17169       1   17154
   17166       1   17151   17163       1   17145   17157       1   17130   17148
       1   17121   17139       1   17118   17136       1   17112   17133       1
   17109   17127       1   17094   17115       1   17085   17103       1   17082
   17100       1   17073   17091       1   17067   17079       1   17268   17277
       1   17262   17274       1   17259   17271       1   17253   17265       1
   17238   17256       1   17229   17247       1   17226   17244       1   17220
   17241       1   17217   17235       1   17202   17223       1   17193   17211
       1   17190   17208       1   17181   17199       1   17175   17187       1
   17376   17385       1   17370   17382       1   17367   17379       1   17361
   17373       1   17346   17364       1   17337   17355       1   17334   17352
       1   17328   17349       1   17325   17343       1   17310   17331       1
   17301   17319       1   17298   17316       1   17289   17307       1   17283
   17295       1   17484   17493       1   17478   17490       1   17475   17487
       1   17469   17481       1   17454   17472       1   17445   17463       1
   17442   17460       1   17436   17457       1   17433   17451       1   17418
   17439       1   17409   17427       1   17406   17424       1   17397   17415
       1   17391   17403       1   17592   17601       1   17586   17598       1
   17583   17595       1   17577   17589       1   17562   17580       1   17553
   17571       1   17550   17568       1   17544   17565       1   17541   17559
       1   17526   17547       1   17517   17535       1   17514   17532       1
   17505   17523       1   17499   17511       1   17700   17709       1   17694
   17706       1   17691   17703       1   17685   17697       1   17670   17688
       1   17661   17679       1   17658   17676       1   17652   17673       1
   17649   17667       1   17634   17655       1   17625   17643       1   17622
   17640       1   17613   17631       1   17607   17619       1   17808   17817
       1   17802   17814       1   17799   17811       1   17793   17805       1
   17778   17796       1   17769   17787       1   17766   17784       1   17760
   17781       1   17757   17775       1   17742   17763       1   17733   17751
       1   17730   17748       1   17721   17739       1   17715   17727       1
   17916   17925       1   17910   17922       1   17907   17919       1   17901
   17913       1   17886   17904       1   17877   17895       1   17874   17892
       1   17868   17889       1   17865   17883       1   17850   17871       1
   17841   17859       1   17838   17856       1   17829   17847       1   17823
   17835       1   18024   18033       1   18018   18030       1   18015   18027
       1   18009   18021       1   17994   18012       1   17985   18003       1
   17982   18000       1   17976   17997       1   17973   17991       1   17958
   17979       1   17949   17967       1   17946   17964       1   17937   17955
       1   17931   17943       1   18132   18141       1   18126   18138       1
   18123   18135       1   18117   18129       1   18102   18120       1   18093
   18111       1   18090   18108       1   18084   18105       1   18081   18099
       1   18066   18087       1   18057   18075       1   18054   18072       1
   18045   18063       1   18039   18051       1   18240   18249       1   18234
   18246       1   18231   18243       1   18225   18237       1   18210   18228
       1   18201   18219       1   18198   18216       1   18192   18213       1
   18189   18207       1   18174   18195       1   18165   18183       1   18162
   18180       1   18153   18171       1   18147   18159       1   18348   18357
       1   18342   18354       1   18339   18351       1   18333   18345       1
   18318   18336       1   18309   18327       1   18306   18324       1   18300
   18321       1   18297   18315       1   18282   18303       1   18273   18291
       1   18270   18288       1   18261   18279       1   18255   18267       1
   18456   18465       1   18450   18462       1   18447   18459       1   18441
   18453       1   18426   18444       1   18417   18435       1   18414   18432
       1   18408   18429       1   18405   18423       1   18390   18411       1
   18381   18399       1   18378   18396       1   18369   18387       1   18363
   18375       1   18564   18573       1   18558   18570       1   18555   18567
       1   18549   18561       1   18534   18552       1   18525   18543       1
   18522   18540       1   18516   18537       1   18513   18531       1   18498
   18519       1   18489   18507       1   18486   18504       1   18477   18495
       1   18471   18483       1   18672   18681       1   18666   18678       1
   18663   18675       1   18657   18669       1   18642   18660       1   18633
   18651       1   18630   18648       1   18624   18645       1   18621   18639
       1   18606   18627       1   18597   18615       1   18594   18612       1
   18585   18603       1   18579   18591       1   18780   18789       1   18774
   18786       1   18771   18783       1   18765   18777       1   18750   18768
       1   18741   18759       1   18738   18756       1   18732   18753       1
   18729   18747       1   18714   18735       1   18705   18723       1   18702
   18720       1   18693   18711       1   18687   18699       1   18888   18897
       1   18882   18894       1   18879   18891       1   18873   18885       1
   18858   18876       1   18849   18867       1   18846   18864       1   18840
   18861       1   18837   18855       1   18822   18843       1   18813   18831
       1   18810   18828       1   18801   18819       1   18795   18807       1
   18996   19005       1   18990   19002       1   18987   18999       1   18981
   18993       1   18966   18984       1   18957   18975       1   18954   18972
       1   18948   18969       1   18945   18963       1   18930   18951       1
   18921   18939       1   18918   18936       1   18909   18927       1   18903
   18915       1   19104   19113       1   19098   19110       1   19095   19107
       1   19089   19101       1   19074   19092       1   19065   19083       1
   19062   19080       1   19056   19077       1   19053   19071       1   19038
   19059       1   19029   19047       1   19026   19044       1   19017   19035
       1   19011   19023       1   19212   19221       1   19206   19218       1
   19203   19215       1   19197   19209       1   19182   19200       1   19173
   19191       1   19170   19188       1   19164   19185       1   19161   19179
       1   19146   19167       1   19137   19155       1   19134   19152       1
   19125   19143       1   19119   19131       1   19320   19329       1   19314
   19326       1   19311   19323       1   19305   19317       1   19290   19308
       1   19281   19299       1   19278   19296       1   19272   19293       1
   19269   19287       1   19254   19275       1   19245   19263       1   19242
   19260       1   19233   19251       1   19227   19239       1   19428   19437
       1   19422   19434       1   19419   19431       1   19413   19425       1
   19398   19416       1   19389   19407       1   19386   19404       1   19380
   19401       1   19377   19395       1   19362   19383       1   19353   19371
       1   19350   19368       1   19341   19359       1   19335   19347       1
   19536   19545       1   19530   19542       1   19527   19539       1   19521
   19533       1   19506   19524       1   19497   19515       1   19494   19512
       1   19488   19509       1   19485   19503       1   19470   19491       1
   19461   19479       1   19458   19476       1   19449   19467       1   19443
   19455       1   19644   19653       1   19638   19650       1   19635   19647
       1   19629   19641       1   19614   19632       1   19605   19623       1
   19602   19620       1   19596   19617       1   19593   19611       1   19578
   19599       1   19569   19587       1   19566   19584       1   19557   19575
       1   19551   19563       1   19752   19761       1   19746   19758       1
   19743   19755       1   19737   19749       1   19722   19740       1   19713
   19731       1   19710   19728       1   19704   19725       1   19701   19719
       1   19686   19707       1   19677   19695       1   19674   19692       1
   19665   19683       1   19659   19671       1   19860   19869       1   19854
   19866       1   19851   19863       1   19845   19857       1   19830   19848
       1   19821   19839       1   19818   19836       1   19812   19833       1
   19809   19827       1   19794   19815       1   19785   19803       1   19782
   19800       1   19773   19791       1   19767   19779       1   19968   19977
       1   19962   19974       1   19959   19971       1   19953   19965       1
   19938   19956       1   19929   19947       1   19926   19944       1   19920
   19941       1   19917   19935       1   19902   19923       1   19893   19911
       1   19890   19908       1   19881   19899       1   19875   19887       1
   20076   20085       1   20070   20082       1   20067   20079       1   20061
   20073       1   20046   20064       1   20037   20055       1   20034   20052
       1   20028   20049       1   20025   20043       1   20010   20031       1
   20001   20019       1   19998   20016       1   19989   20007       1   19983
   19995       1   20184   20193       1   20178   20190       1   20175   20187
       1   20169   20181       1   20154   20172       1   20145   20163       1
   20142   20160       1   20136   20157       1   20133   20151       1   20118
   20139       1   20109   20127       1   20106   20124       1   20097   20115
       1   20091   20103       1   20292   20301       1   20286   20298       1
   20283   20295       1   20277   20289       1   20262   20280       1   20253
   20271       1   20250   20268       1   20244   20265       1   20241   20259
       1   20226   20247       1   20217   20235       1   20214   20232       1
   20205   20223       1   20199   20211       1   20400   20409       1   20394
   20406       1   20391   20403       1   20385   20397       1   20370   20388
       1   20361   20379       1   20358   20376       1   20352   20373       1
   20349   20367       1   20334   20355       1   20325   20343       1   20322
   20340       1   20313   20331       1   20307   20319       1   20508   20517
       1   20502   20514       1   20499   20511       1   20493   20505       1
   20478   20496       1   20469   20487       1   20466   20484       1   20460
   20481       1   20457   20475       1   20442   20463       1   20433   20451
       1   20430   20448       1   20421   20439       1   20415   20427       1
   20616   20625       1   20610   20622       1   20607   20619       1   20601
   20613       1   20586   20604       1   20577   20595       1   20574   20592
       1   20568   20589       1   20565   20583       1   20550   20571       1
   20541   20559       1   20538   20556       1   20529   20547       1   20523
   20535       1   20724   20733       1   20718   20730       1   20715   20727
       1   20709   20721       1   20694   20712       1   20685   20703       1
   20682   20700       1   20676   20697       1   20673   20691       1   20658
   20679       1   20649   20667       1   20646   20664       1   20637   20655
       1   20631   20643       1   20832   20841       1   20826   20838       1
   20823   20835       1   20817   20829       1   20802   20820       1   20793
   20811       1   20790   20808       1   20784   20805       1   20781   20799
       1   20766   20787       1   20757   20775       1   20754   20772       1
   20745   20763       1   20739   20751       1   20940   20949       1   20934
   20946       1   20931   20943       1   20925   20937       1   20910   20928
       1   20901   20919       1   20898   20916       1   20892   20913       1
   20889   20907       1   20874   20895       1   20865   20883       1   20862
   20880       1   20853   20871       1   20847   20859       1   21048   21057
       1   21042   21054       1   21039   21051       1   21033   21045       1
   21018   21036       1   21009   21027       1   21006   21024       1   21000
   21021       1   20997   21015       1   20982   21003       1   20973   20991
       1   20970   20988       1   20961   20979       1   20955   20967       1
   21156   21165       1   21150   21162       1   21147   21159       1   21141
   21153       1   21126   21144       1   21117   21135       1   21114   21132
       1   21108   21129       1   21105   21123       1   21090   21111       1
   21081   21099       1   21078   21096       1   21069   21087       1   21063
   21075       1   21264   21273       1   21258   21270       1   21255   21267
       1   21249   21261       1   21234   21252       1   21225   21243       1
   21222   21240       1   21216   21237       1   21213   21231       1   21198
   21219       1   21189   21207       1   21186   21204       1   21177   21195
       1   21171   21183       1   21372   21381       1   21366   21378       1
   21363   21375       1   21357   21369       1   21342   21360       1   21333
   21351       1   21330   21348       1   21324   21345       1   21321   21339
       1   21306   21327       1   21297   21315       1   21294   21312       1
   21285   21303       1   21279   21291       1   21480   21489       1   21474
   21486       1   21471   21483       1   21465   21477       1   21450   21468
       1   21441   21459       1   21438   21456       1   21432   21453       1
   21429   21447       1   21414   21435       1   21405   21423       1   21402
   21420       1   21393   21411       1   21387   21399       1   21588   21597
       1   21582   21594       1   21579   21591       1   21573   21585       1
   21558   21576       1   21549   21567       1   21546   21564       1   21540
   21561       1   21537   21555       1   21522   21543       1   21513   21531
       1   21510   21528       1   21501   21519       1   21495   21507       1
   21696   21705       1   21690   21702       1   21687   21699       1   21681
   21693       1   21666   21684       1   21657   21675       1   21654   21672
       1   21648   21669       1   21645   21663       1   21630   21651       1
   21621   21639       1   21618   21636       1   21609   21627       1   21603
   21615       1   21804   21813       1   21798   21810       1   21795   21807
       1   21789   21801       1   21774   21792       1   21765   21783       1
   21762   21780       1   21756   21777       1   21753   21771       1   21738
   21759       1   21729   21747       1   21726   21744       1   21717   21735
       1   21711   21723       1   21912   21921       1   21906   21918       1
   21903   21915       1   21897   21909       1   21882   21900       1   21873
   21891       1   21870   21888       1   21864   21885       1   21861   21879
       1   21846   21867       1   21837   21855       1   21834   21852       1
   21825   21843       1   21819   21831       1   22020   22029       1   22014
   22026       1   22011   22023       1   22005   22017       1   21990   22008
       1   21981   21999       1   21978   21996       1   21972   21993       1
   21969   21987       1   21954   21975       1   21945   21963       1   21942
   21960       1   21933   21951       1   21927   21939       1   22128   22137
       1   22122   22134       1   22119   22131       1   22113   22125       1
   22098   22116       1   22089   22107       1   22086   22104       1   22080
   22101       1   22077   22095       1   22062   22083       1   22053   22071
       1   22050   22068       1   22041   22059       1   22035   22047       1
   22236   22245       1   22230   22242       1   22227   22239       1   22221
   22233       1   22206   22224       1   22197   22215       1   22194   22212
       1   22188   22209       1   22185   22203       1   22170   22191       1
   22161   22179       1   22158   22176       1   22149   22167       1   22143
   22155       1   22344   22353       1   22338   22350       1   22335   22347
       1   22329   22341       1   22314   22332       1   22305   22323       1
   22302   22320       1   22296   22317       1   22293   22311       1   22278
   22299       1   22269   22287       1   22266   22284       1   22257   22275
       1   22251   22263       1   22452   22461       1   22446   22458       1
   22443   22455       1   22437   22449       1   22422   22440       1   22413
   22431       1   22410   22428       1   22404   22425       1   22401   22419
       1   22386   22407       1   22377   22395       1   22374   22392       1
   22365   22383       1   22359   22371       1   22560   22569       1   22554
   22566       1   22551   22563       1   22545   22557       1   22530   22548
       1   22521   22539       1   22518   22536       1   22512   22533       1
   22509   22527       1   22494   22515       1   22485   22503       1   22482
   22500       1   22473   22491       1   22467   22479       1   22668   22677
       1   22662   22674       1   22659   22671       1   22653   22665       1
   22638   22656       1   22629   22647       1   22626   22644       1   22620
   22641       1   22617   22635       1   22602   22623       1   22593   22611
       1   22590   22608       1   22581   22599       1   22575   22587       1
   22776   22785       1   22770   22782       1   22767   22779       1   22761
   22773       1   22746   22764       1   22737   22755       1   22734   22752
       1   22728   22749       1   22725   22743       1   22710   22731       1
   22701   22719       1   22698   22716       1   22689   22707       1   22683
   22695       1   22884   22893       1   22878   22890       1   22875   22887
       1   22869   22881       1   22854   22872       1   22845   22863       1
   22842   22860       1   22836   22857       1   22833   22851       1   22818
   22839       1   22809   22827       1   22806   22824       1   22797   22815
       1   22791   22803       1   22992   23001       1   22986   22998       1
   22983   22995       1   22977   22989       1   22962   22980       1   22953
   22971       1   22950   22968       1   22944   22965       1   22941   22959
       1   22926   22947       1   22917   22935       1   22914   22932       1
   22905   22923       1   22899   22911       1   23100   23109       1   23094
   23106       1   23091   23103       1   23085   23097       1   23070   23088
       1   23061   23079       1   23058   23076       1   23052   23073       1
   23049   23067       1   23034   23055       1   23025   23043       1   23022
   23040       1   23013   23031       1   23007   23019       1   23208   23217
       1   23202   23214       1   23199   23211       1   23193   23205       1
   23178   23196       1   23169   23187       1   23166   23184       1   23160
   23181       1   23157   23175       1   23142   23163       1   23133   23151
       1   23130   23148       1   23121   23139       1   23115   23127       1
   23316   23325       1   23310   23322       1   23307   23319       1   23301
   23313       1   23286   23304       1   23277   23295       1   23274   23292
       1   23268   23289       1   23265   23283       1   23250   23271       1
   23241   23259       1   23238   23256       1   23229   23247       1   23223
   23235       1   23424   23433       1   23418   23430       1   23415   23427
       1   23409   23421       1   23394   23412       1   23385   23403       1
   23382   23400       1   23376   23397       1   23373   23391       1   23358
   23379       1   23349   23367       1   23346   23364       1   23337   23355
       1   23331   23343       1   23532   23541       1   23526   23538       1
   23523   23535       1   23517   23529       1   23502   23520       1   23493
   23511       1   23490   23508       1   23484   23505       1   23481   23499
       1   23466   23487       1   23457   23475       1   23454   23472       1
   23445   23463       1   23439   23451       1   23640   23649       1   23634
   23646       1   23631   23643       1   23625   23637       1   23610   23628
       1   23601   23619       1   23598   23616       1   23592   23613       1
   23589   23607       1   23574   23595       1   23565   23583       1   23562
   23580       1   23553   23571       1   23547   23559       1   23748   23757
       1   23742   23754       1   23739   23751       1   23733   23745       1
   23718   23736       1   23709   23727       1   23706   23724       1   23700
   23721       1   23697   23715       1   23682   23703       1   23673   23691
       1   23670   23688       1   23661   23679       1   23655   23667       1
   23856   23865       1   23850   23862       1   23847   23859       1   23841
   23853       1   23826   23844       1   23817   23835       1   23814   23832
       1   23808   23829       1   23805   23823       1   23790   23811       1
   23781   23799       1   23778   23796       1   23769   23787       1   23763
   23775       1   23964   23973       1   23958   23970       1   23955   23967
       1   23949   23961       1   23934   23952       1   23925   23943       1
   23922   23940       1   23916   23937       1   23913   23931       1   23898
   23919       1   23889   23907       1   23886   23904       1   23877   23895
       1   23871   23883       1   24072   24081       1   24066   24078       1
   24063   24075       1   24057   24069       1   24042   24060       1   24033
   24051       1   24030   24048       1   24024   24045       1   24021   24039
       1   24006   24027       1   23997   24015       1   23994   24012       1
   23985   24003       1   23979   23991       1   24180   24189       1   24174
   24186       1   24171   24183       1   24165   24177       1   24150   24168
       1   24141   24159       1   24138   24156       1   24132   24153       1
   24129   24147       1   24114   24135       1   24105   24123       1   24102
   24120       1   24093   24111       1   24087   24099       1   24288   24297
       1   24282   24294       1   24279   24291       1   24273   24285       1
   24258   24276       1   24249   24267       1   24246   24264       1   24240
   24261       1   24237   24255       1   24222   24243       1   24213   24231
       1   24210   24228       1   24201   24219       1   24195   24207       1
   24396   24405       1   24390   24402       1   24387   24399       1   24381
   24393       1   24366   24384       1   24357   24375       1   24354   24372
       1   24348   24369       1   24345   24363       1   24330   24351       1
   24321   24339       1   24318   24336       1   24309   24327       1   24303
   24315       1   24504   24513       1   24498   24510       1   24495   24507
       1   24489   24501       1   24474   24492       1   24465   24483       1
   24462   24480       1   24456   24477       1   24453   24471       1   24438
   24459       1   24429   24447       1   24426   24444       1   24417   24435
       1   24411   24423       1   24612   24621       1   24606   24618       1
   24603   24615       1   24597   24609       1   24582   24600       1   24573
   24591       1   24570   24588       1   24564   24585       1   24561   24579
       1   24546   24567       1   24537   24555       1   24534   24552       1
   24525   24543       1   24519   24531       1   24720   24729       1   24714
   24726       1   24711   24723       1   24705   24717       1   24690   24708
       1   24681   24699       1   24678   24696       1   24672   24693       1
   24669   24687       1   24654   24675       1   24645   24663       1   24642
   24660       1   24633   24651       1   24627   24639       1   24828   24837
       1   24822   24834       1   24819   24831       1   24813   24825       1
   24798   24816       1   24789   24807       1   24786   24804       1   24780
   24801       1   24777   24795       1   24762   24783       1   24753   24771
       1   24750   24768       1   24741   24759       1   24735   24747       1
   24936   24945       1   24930   24942       1   24927   24939       1   24921
   24933       1   24906   24924       1   24897   24915       1   24894   24912
       1   24888   24909       1   24885   24903       1   24870   24891       1
   24861   24879       1   24858   24876       1   24849   24867       1   24843
   24855       1   25044   25053       1   25038   25050       1   25035   25047
       1   25029   25041       1   25014   25032       1   25005   25023       1
   25002   25020       1   24996   25017       1   24993   25011       1   24978
   24999       1   24969   24987       1   24966   24984       1   24957   24975
       1   24951   24963       1   25152   25161       1   25146   25158       1
   25143   25155       1   25137   25149       1   25122   25140       1   25113
   25131       1   25110   25128       1   25104   25125       1   25101   25119
       1   25086   25107       1   25077   25095       1   25074   25092       1
   25065   25083       1   25059   25071       1   25260   25269       1   25254
   25266       1   25251   25263       1   25245   25257       1   25230   25248
       1   25221   25239       1   25218   25236       1   25212   25233       1
   25209   25227       1   25194   25215       1   25185   25203       1   25182
   25200       1   25173   25191       1   25167   25179       1   25368   25377
       1   25362   25374       1   25359   25371       1   25353   25365       1
   25338   25356       1   25329   25347       1   25326   25344       1   25320
   25341       1   25317   25335       1   25302   25323       1   25293   25311
       1   25290   25308       1   25281   25299       1   25275   25287       1
   25476   25485       1   25470   25482       1   25467   25479       1   25461
   25473       1   25446   25464       1   25437   25455       1   25434   25452
       1   25428   25449       1   25425   25443       1   25410   25431       1
   25401   25419       1   25398   25416       1   25389   25407       1   25383
   25395       1   25584   25593       1   25578   25590       1   25575   25587
       1   25569   25581       1   25554   25572       1   25545   25563       1
   25542   25560       1   25536   25557       1   25533   25551       1   25518
   25539       1   25509   25527       1   25506   25524       1   25497   25515
       1   25491   25503       1   25692   25701       1   25686   25698       1
   25683   25695       1   25677   25689       1   25662   25680       1   25653
   25671       1   25650   25668       1   25644   25665       1   25641   25659
       1   25626   25647       1   25617   25635       1   25614   25632       1
   25605   25623       1   25599   25611       1   25800   25809       1   25794
   25806       1   25791   25803       1   25785   25797       1   25770   25788
       1   25761   25779       1   25758   25776       1   25752   25773       1
   25749   25767       1   25734   25755       1   25725   25743       1   25722
   25740       1   25713   25731       1   25707   25719       1   25908   25917
       1   25902   25914       1   25899   25911       1   25893   25905       1
   25878   25896       1   25869   25887       1   25866   25884       1   25860
   25881       1   25857   25875       1   25842   25863       1   25833   25851
       1   25830   25848       1   25821   25839       1   25815   25827       1
   26016   26025       1   26010   26022       1   26007   26019       1   26001
   26013       1   25986   26004       1   25977   25995       1   25974   25992
       1   25968   25989       1   25965   25983       1   25950   25971       1
   25941   25959       1   25938   25956       1   25929   25947       1   25923
   25935       1   26124   26133       1   26118   26130       1   26115   26127
       1   26109   26121       1   26094   26112       1   26085   26103       1
   26082   26100       1   26076   26097       1   26073   26091       1   26058
   26079       1   26049   26067       1   26046   26064       1   26037   26055
       1   26031   26043       1   26232   26241       1   26226   26238       1
   26223   26235       1   26217   26229       1   26202   26220       1   26193
   26211       1   26190   26208       1   26184   26205       1   26181   26199
       1   26166   26187       1   26157   26175       1   26154   26172       1
   26145   26163       1   26139   26151       1   26340   26349       1   26334
   26346       1   26331   26343       1   26325   26337       1   26310   26328
       1   26301   26319       1   26298   26316       1   26292   26313       1
   26289   26307       1   26274   26295       1   26265   26283       1   26262
   26280       1   26253   26271       1   26247   26259       1   26448   26457
       1   26442   26454       1   26439   26451       1   26433   26445       1
   26418   26436       1   26409   26427       1   26406   26424       1   26400
   26421       1   26397   26415       1   26382   26403       1   26373   26391
       1   26370   26388       1   26361   26379       1   26355   26367       1
   26556   26565       1   26550   26562       1   26547   26559       1   26541
   26553       1   26526   26544       1   26517   26535       1   26514   26532
       1   26508   26529       1   26505   26523       1   26490   26511       1
   26481   26499       1   26478   26496       1   26469   26487       1   26463
   26475       1   26664   26673       1   26658   26670       1   26655   26667
       1   26649   26661       1   26634   26652       1   26625   26643       1
   26622   26640       1   26616   26637       1   26613   26631       1   26598
   26619       1   26589   26607       1   26586   26604       1   26577   26595
       1   26571   26583       1   26772   26781       1   26766   26778       1
   26763   26775       1   26757   26769       1   26742   26760       1   26733
   26751       1   26730   26748       1   26724   26745       1   26721   26739
       1   26706   26727       1   26697   26715       1   26694   26712       1
   26685   26703       1   26679   26691       1   26880   26889       1   26874
   26886       1   26871   26883       1   26865   26877       1   26850   26868
       1   26841   26859       1   26838   26856       1   26832   26853       1
   26829   26847       1   26814   26835       1   26805   26823       1   26802
   26820       1   26793   26811       1   26787   26799       1   26988   26997
       1   26982   26994       1   26979   26991       1   26973   26985       1
   26958   26976       1   26949   26967       1   26946   26964       1   26940
   26961       1   26937   26955       1   26922   26943       1   26913   26931
       1   26910   26928       1   26901   26919       1   26895   26907       1
%FLAG BONDS_WITHOUT_HYDROGEN                                                    
%FORMAT(10I8)                                                                   
      90      96       2      87      96       2      81      90       2      78
      87       2      60      78       2      60      81       2      57      78
       2      54      66       2      48      66       2      45      60       2
      42      57       2      33      54       2      30      48       2      24
      42       2      24      45       2      21      42       2      18      33
       2      12      30       2      12      33       2       9      24       2
       6      18       2       6      21       2       3      12       2       0
       3       2       0       6       2       0       9       2     198     204
       2     195     204       2     189     198       2     186     195       2
     168     186       2     168     189       2     165     186       2     162
     174       2     156     174       2     153     168       2     150     165
       2     141     162       2     138     156       2     132     150       2
     132     153       2     129     150       2     126     141       2     120
     138       2     120     141       2     117     132       2     114     126
       2     114     129       2     111     120       2     108     111       2
     108     114       2     108     117       2     306     312       2     303
     312       2     297     306       2     294     303       2     276     294
       2     276     297       2     273     294       2     270     282       2
     264     282       2     261     276       2     258     273       2     249
     270       2     246     264       2     240     258       2     240     261
       2     237     258       2     234     249       2     228     246       2
     228     249       2     225     240       2     222     234       2     222
     237       2     219     228       2     216     219       2     216     222
       2     216     225       2     414     420       2     411     420       2
     405     414       2     402     411       2     384     402       2     384
     405       2     381     402       2     378     390       2     372     390
       2     369     384       2     366     381       2     357     378       2
     354     372       2     348     366       2     348     369       2     345
     366       2     342     357       2     336     354       2     336     357
       2     333     348       2     330     342       2     330     345       2
     327     336       2     324     327       2     324     330       2     324
     333       2     522     528       2     519     528       2     513     522
       2     510     519       2     492     510       2     492     513       2
     489     510       2     486     498       2     480     498       2     477
     492       2     474     489       2     465     486       2     462     480
       2     456     474       2     456     477       2     453     474       2
     450     465       2     444     462       2     444     465       2     441
     456       2     438     450       2     438     453       2     435     444
       2     432     435       2     432     438       2     432     441       2
     630     636       2     627     636       2     621     630       2     618
     627       2     600     618       2     600     621       2     597     618
       2     594     606       2     588     606       2     585     600       2
     582     597       2     573     594       2     570     588       2     564
     582       2     564     585       2     561     582       2     558     573
       2     552     570       2     552     573       2     549     564       2
     546     558       2     546     561       2     543     552       2     540
     543       2     540     546       2     540     549       2     738     744
       2     735     744       2     729     738       2     726     735       2
     708     726       2     708     729       2     705     726       2     702
     714       2     696     714       2     693     708       2     690     705
       2     681     702       2     678     696       2     672     690       2
     672     693       2     669     690       2     666     681       2     660
     678       2     660     681       2     657     672       2     654     666
       2     654     669       2     651     660       2     648     651       2
     648     654       2     648     657       2     846     852       2     843
     852       2     837     846       2     834     843       2     816     834
       2     816     837       2     813     834       2     810     822       2
     804     822       2     801     816       2     798     813       2     789
     810       2     786     804       2     780     798       2     780     801
       2     777     798       2     774     789       2     768     786       2
     768     789       2     765     780       2     762     774       2     762
     777       2     759     768       2     756     759       2     756     762
       2     756     765       2     954     960       2     951     960       2
     945     954       2     942     951       2     924     942       2     924
     945       2     921     942       2     918     930       2     912     930
       2     909     924       2     906     921       2     897     918       2
     894     912       2     888     906       2     888     909       2     885
     906       2     882     897       2     876     894       2     876     897
       2     873     888       2     870     882       2     870     885       2
     867     876       2     864     867       2     864     870       2     864
     873       2    1062    1068       2    1059    1068       2    1053    1062
       2    1050    1059       2    1032    1050       2    1032    1053       2
    1029    1050       2    1026    1038       2    1020    1038       2    1017
    1032       2    1014    1029       2    1005    1026       2    1002    1020
       2     996    1014       2     996    1017       2     993    1014       2
     990    1005       2     984    1002       2     984    1005       2     981
     996       2     978     990       2     978     993       2     975     984
       2     972     975       2     972     978       2     972     981       2
    1170    1176       2    1167    1176       2    1161    1170       2    1158
    1167       2    1140    1158       2    1140    1161       2    1137    1158
       2    1134    1146       2    1128    1146       2    1125    1140       2
    1122    1137       2    1113    1134       2    1110    1128       2    1104
    1122       2    1104    1125       2    1101    1122       2    1098    1113
       2    1092    1110       2    1092    1113       2    1089    1104       2
    1086    1098       2    1086    1101       2    1083    1092       2    1080
    1083       2    1080    1086       2    1080    1089       2    1278    1284
       2    1275    1284       2    1269    1278       2    1266    1275       2
    1248    1266       2    1248    1269       2    1245    1266       2    1242
    1254       2    1236    1254       2    1233    1248       2    1230    1245
       2    1221    1242       2    1218    1236       2    1212    1230       2
    1212    1233       2    1209    1230       2    1206    1221       2    1200
    1218       2    1200    1221       2    1197    1212       2    1194    1206
       2    1194    1209       2    1191    1200       2    1188    1191       2
    1188    1194       2    1188    1197       2    1386    1392       2    1383
    1392       2    1377    1386       2    1374    1383       2    1356    1374
       2    1356    1377       2    1353    1374       2    1350    1362       2
    1344    1362       2    1341    1356       2    1338    1353       2    1329
    1350       2    1326    1344       2    1320    1338       2    1320    1341
       2    1317    1338       2    1314    1329       2    1308    1326       2
    1308    1329       2    1305    1320       2    1302    1314       2    1302
    1317       2    1299    1308       2    1296    1299       2    1296    1302
       2    1296    1305       2    1494    1500       2    1491    1500       2
    1485    1494       2    1482    1491       2    1464    1482       2    1464
    1485       2    1461    1482       2    1458    1470       2    1452    1470
       2    1449    1464       2    1446    1461       2    1437    1458       2
    1434    1452       2    1428    1446       2    1428    1449       2    1425
    1446       2    1422    1437       2    1416    1434       2    1416    1437
       2    1413    1428       2    1410    1422       2    1410    1425       2
    1407    1416       2    1404    1407       2    1404    1410       2    1404
    1413       2    1602    1608       2    1599    1608       2    1593    1602
       2    1590    1599       2    1572    1590       2    1572    1593       2
    1569    1590       2    1566    1578       2    1560    1578       2    1557
    1572       2    1554    1569       2    1545    1566       2    1542    1560
       2    1536    1554       2    1536    1557       2    1533    1554       2
    1530    1545       2    1524    1542       2    1524    1545       2    1521
    1536       2    1518    1530       2    1518    1533       2    1515    1524
       2    1512    1515       2    1512    1518       2    1512    1521       2
    1710    1716       2    1707    1716       2    1701    1710       2    1698
    1707       2    1680    1698       2    1680    1701       2    1677    1698
       2    1674    1686       2    1668    1686       2    1665    1680       2
    1662    1677       2    1653    1674       2    1650    1668       2    1644
    1662       2    1644    1665       2    1641    1662       2    1638    1653
       2    1632    1650       2    1632    1653       2    1629    1644       2
    1626    1638       2    1626    1641       2    1623    1632       2    1620
    1623       2    1620    1626       2    1620    1629       2    1818    1824
       2    1815    1824       2    1809    1818       2    1806    1815       2
    1788    1806       2    1788    1809       2    1785    1806       2    1782
    1794       2    1776    1794       2    1773    1788       2    1770    1785
       2    1761    1782       2    1758    1776       2    1752    1770       2
    1752    1773       2    1749    1770       2    1746    1761       2    1740
    1758       2    1740    1761       2    1737    1752       2    1734    1746
       2    1734    1749       2    1731    1740       2    1728    1731       2
    1728    1734       2    1728    1737       2    1926    1932       2    1923
    1932       2    1917    1926       2    1914    1923       2    1896    1914
       2    1896    1917       2    1893    1914       2    1890    1902       2
    1884    1902       2    1881    1896       2    1878    1893       2    1869
    1890       2    1866    1884       2    1860    1878       2    1860    1881
       2    1857    1878       2    1854    1869       2    1848    1866       2
    1848    1869       2    1845    1860       2    1842    1854       2    1842
    1857       2    1839    1848       2    1836    1839       2    1836    1842
       2    1836    1845       2    2034    2040       2    2031    2040       2
    2025    2034       2    2022    2031       2    2004    2022       2    2004
    2025       2    2001    2022       2    1998    2010       2    1992    2010
       2    1989    2004       2    1986    2001       2    1977    1998       2
    1974    1992       2    1968    1986       2    1968    1989       2    1965
    1986       2    1962    1977       2    1956    1974       2    1956    1977
       2    1953    1968       2    1950    1962       2    1950    1965       2
    1947    1956       2    1944    1947       2    1944    1950       2    1944
    1953       2    2142    2148       2    2139    2148       2    2133    2142
       2    2130    2139       2    2112    2130       2    2112    2133       2
    2109    2130       2    2106    2118       2    2100    2118       2    2097
    2112       2    2094    2109       2    2085    2106       2    2082    2100
       2    2076    2094       2    2076    2097       2    2073    2094       2
    2070    2085       2    2064    2082       2    2064    2085       2    2061
    2076       2    2058    2070       2    2058    2073       2    2055    2064
       2    2052    2055       2    2052    2058       2    2052    2061       2
    2250    2256       2    2247    2256       2    2241    2250       2    2238
    2247       2    2220    2238       2    2220    2241       2    2217    2238
       2    2214    2226       2    2208    2226       2    2205    2220       2
    2202    2217       2    2193    2214       2    2190    2208       2    2184
    2202       2    2184    2205       2    2181    2202       2    2178    2193
       2    2172    2190       2    2172    2193       2    2169    2184       2
    2166    2178       2    2166    2181       2    2163    2172       2    2160
    2163       2    2160    2166       2    2160    2169       2    2358    2364
       2    2355    2364       2    2349    2358       2    2346    2355       2
    2328    2346       2    2328    2349       2    2325    2346       2    2322
    2334       2    2316    2334       2    2313    2328       2    2310    2325
       2    2301    2322       2    2298    2316       2    2292    2310       2
    2292    2313       2    2289    2310       2    2286    2301       2    2280
    2298       2    2280    2301       2    2277    2292       2    2274    2286
       2    2274    2289       2    2271    2280       2    2268    2271       2
    2268    2274       2    2268    2277       2    2466    2472       2    2463
    2472       2    2457    2466       2    2454    2463       2    2436    2454
       2    2436    2457       2    2433    2454       2    2430    2442       2
    2424    2442       2    2421    2436       2    2418    2433       2    2409
    2430       2    2406    2424       2    2400    2418       2    2400    2421
       2    2397    2418       2    2394    2409       2    2388    2406       2
    2388    2409       2    2385    2400       2    2382    2394       2    2382
    2397       2    2379    2388       2    2376    2379       2    2376    2382
       2    2376    2385       2    2574    2580       2    2571    2580       2
    2565    2574       2    2562    2571       2    2544    2562       2    2544
    2565       2    2541    2562       2    2538    2550       2    2532    2550
       2    2529    2544       2    2526    2541       2    2517    2538       2
    2514    2532       2    2508    2526       2    2508    2529       2    2505
    2526       2    2502    2517       2    2496    2514       2    2496    2517
       2    2493    2508       2    2490    2502       2    2490    2505       2
    2487    2496       2    2484    2487       2    2484    2490       2    2484
    2493       2    2682    2688       2    2679    2688       2    2673    2682
       2    2670    2679       2    2652    2670       2    2652    2673       2
    2649    2670       2    2646    2658       2    2640    2658       2    2637
    2652       2    2634    2649       2    2625    2646       2    2622    2640
       2    2616    2634       2    2616    2637       2    2613    2634       2
    2610    2625       2    2604    2622       2    2604    2625       2    2601
    2616       2    2598    2610       2    2598    2613       2    2595    2604
       2    2592    2595       2    2592    2598       2    2592    2601       2
    2790    2796       2    2787    2796       2    2781    2790       2    2778
    2787       2    2760    2778       2    2760    2781       2    2757    2778
       2    2754    2766       2    2748    2766       2    2745    2760       2
    2742    2757       2    2733    2754       2    2730    2748       2    2724
    2742       2    2724    2745       2    2721    2742       2    2718    2733
       2    2712    2730       2    2712    2733       2    2709    2724       2
    2706    2718       2    2706    2721       2    2703    2712       2    2700
    2703       2    2700    2706       2    2700    2709       2    2898    2904
       2    2895    2904       2    2889    2898       2    2886    2895       2
    2868    2886       2    2868    2889       2    2865    2886       2    2862
    2874       2    2856    2874       2    2853    2868       2    2850    2865
       2    2841    2862       2    2838    2856       2    2832    2850       2
    2832    2853       2    2829    2850       2    2826    2841       2    2820
    2838       2    2820    2841       2    2817    2832       2    2814    2826
       2    2814    2829       2    2811    2820       2    2808    2811       2
    2808    2814       2    2808    2817       2    3006    3012       2    3003
    3012       2    2997    3006       2    2994    3003       2    2976    2994
       2    2976    2997       2    2973    2994       2    2970    2982       2
    2964    2982       2    2961    2976       2    2958    2973       2    2949
    2970       2    2946    2964       2    2940    2958       2    2940    2961
       2    2937    2958       2    2934    2949       2    2928    2946       2
    2928    2949       2    2925    2940       2    2922    2934       2    2922
    2937       2    2919    2928       2    2916    2919       2    2916    2922
       2    2916    2925       2    3114    3120       2    3111    3120       2
    3105    3114       2    3102    3111       2    3084    3102       2    3084
    3105       2    3081    3102       2    3078    3090       2    3072    3090
       2    3069    3084       2    3066    3081       2    3057    3078       2
    3054    3072       2    3048    3066       2    3048    3069       2    3045
    3066       2    3042    3057       2    3036    3054       2    3036    3057
       2    3033    3048       2    3030    3042       2    3030    3045       2
    3027    3036       2    3024    3027       2    3024    3030       2    3024
    3033       2    3222    3228       2    3219    3228       2    3213    3222
       2    3210    3219       2    3192    3210       2    3192    3213       2
    3189    3210       2    3186    3198       2    3180    3198       2    3177
    3192       2    3174    3189       2    3165    3186       2    3162    3180
       2    3156    3174       2    3156    3177       2    3153    3174       2
    3150    3165       2    3144    3162       2    3144    3165       2    3141
    3156       2    3138    3150       2    3138    3153       2    3135    3144
       2    3132    3135       2    3132    3138       2    3132    3141       2
    3330    3336       2    3327    3336       2    3321    3330       2    3318
    3327       2    3300    3318       2    3300    3321       2    3297    3318
       2    3294    3306       2    3288    3306       2    3285    3300       2
    3282    3297       2    3273    3294       2    3270    3288       2    3264
    3282       2    3264    3285       2    3261    3282       2    3258    3273
       2    3252    3270       2    3252    3273       2    3249    3264       2
    3246    3258       2    3246    3261       2    3243    3252       2    3240
    3243       2    3240    3246       2    3240    3249       2    3438    3444
       2    3435    3444       2    3429    3438       2    3426    3435       2
    3408    3426       2    3408    3429       2    3405    3426       2    3402
    3414       2    3396    3414       2    3393    3408       2    3390    3405
       2    3381    3402       2    3378    3396       2    3372    3390       2
    3372    3393       2    3369    3390       2    3366    3381       2    3360
    3378       2    3360    3381       2    3357    3372       2    3354    3366
       2    3354    3369       2    3351    3360       2    3348    3351       2
    3348    3354       2    3348    3357       2    3546    3552       2    3543
    3552       2    3537    3546       2    3534    3543       2    3516    3534
       2    3516    3537       2    3513    3534       2    3510    3522       2
    3504    3522       2    3501    3516       2    3498    3513       2    3489
    3510       2    3486    3504       2    3480    3498       2    3480    3501
       2    3477    3498       2    3474    3489       2    3468    3486       2
    3468    3489       2    3465    3480       2    3462    3474       2    3462
    3477       2    3459    3468       2    3456    3459       2    3456    3462
       2    3456    3465       2    3654    3660       2    3651    3660       2
    3645    3654       2    3642    3651       2    3624    3642       2    3624
    3645       2    3621    3642       2    3618    3630       2    3612    3630
       2    3609    3624       2    3606    3621       2    3597    3618       2
    3594    3612       2    3588    3606       2    3588    3609       2    3585
    3606       2    3582    3597       2    3576    3594       2    3576    3597
       2    3573    3588       2    3570    3582       2    3570    3585       2
    3567    3576       2    3564    3567       2    3564    3570       2    3564
    3573       2    3762    3768       2    3759    3768       2    3753    3762
       2    3750    3759       2    3732    3750       2    3732    3753       2
    3729    3750       2    3726    3738       2    3720    3738       2    3717
    3732       2    3714    3729       2    3705    3726       2    3702    3720
       2    3696    3714       2    3696    3717       2    3693    3714       2
    3690    3705       2    3684    3702       2    3684    3705       2    3681
    3696       2    3678    3690       2    3678    3693       2    3675    3684
       2    3672    3675       2    3672    3678       2    3672    3681       2
    3870    3876       2    3867    3876       2    3861    3870       2    3858
    3867       2    3840    3858       2    3840    3861       2    3837    3858
       2    3834    3846       2    3828    3846       2    3825    3840       2
    3822    3837       2    3813    3834       2    3810    3828       2    3804
    3822       2    3804    3825       2    3801    3822       2    3798    3813
       2    3792    3810       2    3792    3813       2    3789    3804       2
    3786    3798       2    3786    3801       2    3783    3792       2    3780
    3783       2    3780    3786       2    3780    3789       2    3978    3984
       2    3975    3984       2    3969    3978       2    3966    3975       2
    3948    3966       2    3948    3969       2    3945    3966       2    3942
    3954       2    3936    3954       2    3933    3948       2    3930    3945
       2    3921    3942       2    3918    3936       2    3912    3930       2
    3912    3933       2    3909    3930       2    3906    3921       2    3900
    3918       2    3900    3921       2    3897    3912       2    3894    3906
       2    3894    3909       2    3891    3900       2    3888    3891       2
    3888    3894       2    3888    3897       2    4086    4092       2    4083
    4092       2    4077    4086       2    4074    4083       2    4056    4074
       2    4056    4077       2    4053    4074       2    4050    4062       2
    4044    4062       2    4041    4056       2    4038    4053       2    4029
    4050       2    4026    4044       2    4020    4038       2    4020    4041
       2    4017    4038       2    4014    4029       2    4008    4026       2
    4008    4029       2    4005    4020       2    4002    4014       2    4002
    4017       2    3999    4008       2    3996    3999       2    3996    4002
       2    3996    4005       2    4194    4200       2    4191    4200       2
    4185    4194       2    4182    4191       2    4164    4182       2    4164
    4185       2    4161    4182       2    4158    4170       2    4152    4170
       2    4149    4164       2    4146    4161       2    4137    4158       2
    4134    4152       2    4128    4146       2    4128    4149       2    4125
    4146       2    4122    4137       2    4116    4134       2    4116    4137
       2    4113    4128       2    4110    4122       2    4110    4125       2
    4107    4116       2    4104    4107       2    4104    4110       2    4104
    4113       2    4302    4308       2    4299    4308       2    4293    4302
       2    4290    4299       2    4272    4290       2    4272    4293       2
    4269    4290       2    4266    4278       2    4260    4278       2    4257
    4272       2    4254    4269       2    4245    4266       2    4242    4260
       2    4236    4254       2    4236    4257       2    4233    4254       2
    4230    4245       2    4224    4242       2    4224    4245       2    4221
    4236       2    4218    4230       2    4218    4233       2    4215    4224
       2    4212    4215       2    4212    4218       2    4212    4221       2
    4410    4416       2    4407    4416       2    4401    4410       2    4398
    4407       2    4380    4398       2    4380    4401       2    4377    4398
       2    4374    4386       2    4368    4386       2    4365    4380       2
    4362    4377       2    4353    4374       2    4350    4368       2    4344
    4362       2    4344    4365       2    4341    4362       2    4338    4353
       2    4332    4350       2    4332    4353       2    4329    4344       2
    4326    4338       2    4326    4341       2    4323    4332       2    4320
    4323       2    4320    4326       2    4320    4329       2    4518    4524
       2    4515    4524       2    4509    4518       2    4506    4515       2
    4488    4506       2    4488    4509       2    4485    4506       2    4482
    4494       2    4476    4494       2    4473    4488       2    4470    4485
       2    4461    4482       2    4458    4476       2    4452    4470       2
    4452    4473       2    4449    4470       2    4446    4461       2    4440
    4458       2    4440    4461       2    4437    4452       2    4434    4446
       2    4434    4449       2    4431    4440       2    4428    4431       2
    4428    4434       2    4428    4437       2    4626    4632       2    4623
    4632       2    4617    4626       2    4614    4623       2    4596    4614
       2    4596    4617       2    4593    4614       2    4590    4602       2
    4584    4602       2    4581    4596       2    4578    4593       2    4569
    4590       2    4566    4584       2    4560    4578       2    4560    4581
       2    4557    4578       2    4554    4569       2    4548    4566       2
    4548    4569       2    4545    4560       2    4542    4554       2    4542
    4557       2    4539    4548       2    4536    4539       2    4536    4542
       2    4536    4545       2    4734    4740       2    4731    4740       2
    4725    4734       2    4722    4731       2    4704    4722       2    4704
    4725       2    4701    4722       2    4698    4710       2    4692    4710
       2    4689    4704       2    4686    4701       2    4677    4698       2
    4674    4692       2    4668    4686       2    4668    4689       2    4665
    4686       2    4662    4677       2    4656    4674       2    4656    4677
       2    4653    4668       2    4650    4662       2    4650    4665       2
    4647    4656       2    4644    4647       2    4644    4650       2    4644
    4653       2    4842    4848       2    4839    4848       2    4833    4842
       2    4830    4839       2    4812    4830       2    4812    4833       2
    4809    4830       2    4806    4818       2    4800    4818       2    4797
    4812       2    4794    4809       2    4785    4806       2    4782    4800
       2    4776    4794       2    4776    4797       2    4773    4794       2
    4770    4785       2    4764    4782       2    4764    4785       2    4761
    4776       2    4758    4770       2    4758    4773       2    4755    4764
       2    4752    4755       2    4752    4758       2    4752    4761       2
    4950    4956       2    4947    4956       2    4941    4950       2    4938
    4947       2    4920    4938       2    4920    4941       2    4917    4938
       2    4914    4926       2    4908    4926       2    4905    4920       2
    4902    4917       2    4893    4914       2    4890    4908       2    4884
    4902       2    4884    4905       2    4881    4902       2    4878    4893
       2    4872    4890       2    4872    4893       2    4869    4884       2
    4866    4878       2    4866    4881       2    4863    4872       2    4860
    4863       2    4860    4866       2    4860    4869       2    5058    5064
       2    5055    5064       2    5049    5058       2    5046    5055       2
    5028    5046       2    5028    5049       2    5025    5046       2    5022
    5034       2    5016    5034       2    5013    5028       2    5010    5025
       2    5001    5022       2    4998    5016       2    4992    5010       2
    4992    5013       2    4989    5010       2    4986    5001       2    4980
    4998       2    4980    5001       2    4977    4992       2    4974    4986
       2    4974    4989       2    4971    4980       2    4968    4971       2
    4968    4974       2    4968    4977       2    5166    5172       2    5163
    5172       2    5157    5166       2    5154    5163       2    5136    5154
       2    5136    5157       2    5133    5154       2    5130    5142       2
    5124    5142       2    5121    5136       2    5118    5133       2    5109
    5130       2    5106    5124       2    5100    5118       2    5100    5121
       2    5097    5118       2    5094    5109       2    5088    5106       2
    5088    5109       2    5085    5100       2    5082    5094       2    5082
    5097       2    5079    5088       2    5076    5079       2    5076    5082
       2    5076    5085       2    5274    5280       2    5271    5280       2
    5265    5274       2    5262    5271       2    5244    5262       2    5244
    5265       2    5241    5262       2    5238    5250       2    5232    5250
       2    5229    5244       2    5226    5241       2    5217    5238       2
    5214    5232       2    5208    5226       2    5208    5229       2    5205
    5226       2    5202    5217       2    5196    5214       2    5196    5217
       2    5193    5208       2    5190    5202       2    5190    5205       2
    5187    5196       2    5184    5187       2    5184    5190       2    5184
    5193       2    5382    5388       2    5379    5388       2    5373    5382
       2    5370    5379       2    5352    5370       2    5352    5373       2
    5349    5370       2    5346    5358       2    5340    5358       2    5337
    5352       2    5334    5349       2    5325    5346       2    5322    5340
       2    5316    5334       2    5316    5337       2    5313    5334       2
    5310    5325       2    5304    5322       2    5304    5325       2    5301
    5316       2    5298    5310       2    5298    5313       2    5295    5304
       2    5292    5295       2    5292    5298       2    5292    5301       2
    5490    5496       2    5487    5496       2    5481    5490       2    5478
    5487       2    5460    5478       2    5460    5481       2    5457    5478
       2    5454    5466       2    5448    5466       2    5445    5460       2
    5442    5457       2    5433    5454       2    5430    5448       2    5424
    5442       2    5424    5445       2    5421    5442       2    5418    5433
       2    5412    5430       2    5412    5433       2    5409    5424       2
    5406    5418       2    5406    5421       2    5403    5412       2    5400
    5403       2    5400    5406       2    5400    5409       2    5598    5604
       2    5595    5604       2    5589    5598       2    5586    5595       2
    5568    5586       2    5568    5589       2    5565    5586       2    5562
    5574       2    5556    5574       2    5553    5568       2    5550    5565
       2    5541    5562       2    5538    5556       2    5532    5550       2
    5532    5553       2    5529    5550       2    5526    5541       2    5520
    5538       2    5520    5541       2    5517    5532       2    5514    5526
       2    5514    5529       2    5511    5520       2    5508    5511       2
    5508    5514       2    5508    5517       2    5706    5712       2    5703
    5712       2    5697    5706       2    5694    5703       2    5676    5694
       2    5676    5697       2    5673    5694       2    5670    5682       2
    5664    5682       2    5661    5676       2    5658    5673       2    5649
    5670       2    5646    5664       2    5640    5658       2    5640    5661
       2    5637    5658       2    5634    5649       2    5628    5646       2
    5628    5649       2    5625    5640       2    5622    5634       2    5622
    5637       2    5619    5628       2    5616    5619       2    5616    5622
       2    5616    5625       2    5814    5820       2    5811    5820       2
    5805    5814       2    5802    5811       2    5784    5802       2    5784
    5805       2    5781    5802       2    5778    5790       2    5772    5790
       2    5769    5784       2    5766    5781       2    5757    5778       2
    5754    5772       2    5748    5766       2    5748    5769       2    5745
    5766       2    5742    5757       2    5736    5754       2    5736    5757
       2    5733    5748       2    5730    5742       2    5730    5745       2
    5727    5736       2    5724    5727       2    5724    5730       2    5724
    5733       2    5922    5928       2    5919    5928       2    5913    5922
       2    5910    5919       2    5892    5910       2    5892    5913       2
    5889    5910       2    5886    5898       2    5880    5898       2    5877
    5892       2    5874    5889       2    5865    5886       2    5862    5880
       2    5856    5874       2    5856    5877       2    5853    5874       2
    5850    5865       2    5844    5862       2    5844    5865       2    5841
    5856       2    5838    5850       2    5838    5853       2    5835    5844
       2    5832    5835       2    5832    5838       2    5832    5841       2
    6030    6036       2    6027    6036       2    6021    6030       2    6018
    6027       2    6000    6018       2    6000    6021       2    5997    6018
       2    5994    6006       2    5988    6006       2    5985    6000       2
    5982    5997       2    5973    5994       2    5970    5988       2    5964
    5982       2    5964    5985       2    5961    5982       2    5958    5973
       2    5952    5970       2    5952    5973       2    5949    5964       2
    5946    5958       2    5946    5961       2    5943    5952       2    5940
    5943       2    5940    5946       2    5940    5949       2    6138    6144
       2    6135    6144       2    6129    6138       2    6126    6135       2
    6108    6126       2    6108    6129       2    6105    6126       2    6102
    6114       2    6096    6114       2    6093    6108       2    6090    6105
       2    6081    6102       2    6078    6096       2    6072    6090       2
    6072    6093       2    6069    6090       2    6066    6081       2    6060
    6078       2    6060    6081       2    6057    6072       2    6054    6066
       2    6054    6069       2    6051    6060       2    6048    6051       2
    6048    6054       2    6048    6057       2    6246    6252       2    6243
    6252       2    6237    6246       2    6234    6243       2    6216    6234
       2    6216    6237       2    6213    6234       2    6210    6222       2
    6204    6222       2    6201    6216       2    6198    6213       2    6189
    6210       2    6186    6204       2    6180    6198       2    6180    6201
       2    6177    6198       2    6174    6189       2    6168    6186       2
    6168    6189       2    6165    6180       2    6162    6174       2    6162
    6177       2    6159    6168       2    6156    6159       2    6156    6162
       2    6156    6165       2    6354    6360       2    6351    6360       2
    6345    6354       2    6342    6351       2    6324    6342       2    6324
    6345       2    6321    6342       2    6318    6330       2    6312    6330
       2    6309    6324       2    6306    6321       2    6297    6318       2
    6294    6312       2    6288    6306       2    6288    6309       2    6285
    6306       2    6282    6297       2    6276    6294       2    6276    6297
       2    6273    6288       2    6270    6282       2    6270    6285       2
    6267    6276       2    6264    6267       2    6264    6270       2    6264
    6273       2    6462    6468       2    6459    6468       2    6453    6462
       2    6450    6459       2    6432    6450       2    6432    6453       2
    6429    6450       2    6426    6438       2    6420    6438       2    6417
    6432       2    6414    6429       2    6405    6426       2    6402    6420
       2    6396    6414       2    6396    6417       2    6393    6414       2
    6390    6405       2    6384    6402       2    6384    6405       2    6381
    6396       2    6378    6390       2    6378    6393       2    6375    6384
       2    6372    6375       2    6372    6378       2    6372    6381       2
    6570    6576       2    6567    6576       2    6561    6570       2    6558
    6567       2    6540    6558       2    6540    6561       2    6537    6558
       2    6534    6546       2    6528    6546       2    6525    6540       2
    6522    6537       2    6513    6534       2    6510    6528       2    6504
    6522       2    6504    6525       2    6501    6522       2    6498    6513
       2    6492    6510       2    6492    6513       2    6489    6504       2
    6486    6498       2    6486    6501       2    6483    6492       2    6480
    6483       2    6480    6486       2    6480    6489       2    6678    6684
       2    6675    6684       2    6669    6678       2    6666    6675       2
    6648    6666       2    6648    6669       2    6645    6666       2    6642
    6654       2    6636    6654       2    6633    6648       2    6630    6645
       2    6621    6642       2    6618    6636       2    6612    6630       2
    6612    6633       2    6609    6630       2    6606    6621       2    6600
    6618       2    6600    6621       2    6597    6612       2    6594    6606
       2    6594    6609       2    6591    6600       2    6588    6591       2
    6588    6594       2    6588    6597       2    6786    6792       2    6783
    6792       2    6777    6786       2    6774    6783       2    6756    6774
       2    6756    6777       2    6753    6774       2    6750    6762       2
    6744    6762       2    6741    6756       2    6738    6753       2    6729
    6750       2    6726    6744       2    6720    6738       2    6720    6741
       2    6717    6738       2    6714    6729       2    6708    6726       2
    6708    6729       2    6705    6720       2    6702    6714       2    6702
    6717       2    6699    6708       2    6696    6699       2    6696    6702
       2    6696    6705       2    6894    6900       2    6891    6900       2
    6885    6894       2    6882    6891       2    6864    6882       2    6864
    6885       2    6861    6882       2    6858    6870       2    6852    6870
       2    6849    6864       2    6846    6861       2    6837    6858       2
    6834    6852       2    6828    6846       2    6828    6849       2    6825
    6846       2    6822    6837       2    6816    6834       2    6816    6837
       2    6813    6828       2    6810    6822       2    6810    6825       2
    6807    6816       2    6804    6807       2    6804    6810       2    6804
    6813       2    7002    7008       2    6999    7008       2    6993    7002
       2    6990    6999       2    6972    6990       2    6972    6993       2
    6969    6990       2    6966    6978       2    6960    6978       2    6957
    6972       2    6954    6969       2    6945    6966       2    6942    6960
       2    6936    6954       2    6936    6957       2    6933    6954       2
    6930    6945       2    6924    6942       2    6924    6945       2    6921
    6936       2    6918    6930       2    6918    6933       2    6915    6924
       2    6912    6915       2    6912    6918       2    6912    6921       2
    7110    7116       2    7107    7116       2    7101    7110       2    7098
    7107       2    7080    7098       2    7080    7101       2    7077    7098
       2    7074    7086       2    7068    7086       2    7065    7080       2
    7062    7077       2    7053    7074       2    7050    7068       2    7044
    7062       2    7044    7065       2    7041    7062       2    7038    7053
       2    7032    7050       2    7032    7053       2    7029    7044       2
    7026    7038       2    7026    7041       2    7023    7032       2    7020
    7023       2    7020    7026       2    7020    7029       2    7218    7224
       2    7215    7224       2    7209    7218       2    7206    7215       2
    7188    7206       2    7188    7209       2    7185    7206       2    7182
    7194       2    7176    7194       2    7173    7188       2    7170    7185
       2    7161    7182       2    7158    7176       2    7152    7170       2
    7152    7173       2    7149    7170       2    7146    7161       2    7140
    7158       2    7140    7161       2    7137    7152       2    7134    7146
       2    7134    7149       2    7131    7140       2    7128    7131       2
    7128    7134       2    7128    7137       2    7326    7332       2    7323
    7332       2    7317    7326       2    7314    7323       2    7296    7314
       2    7296    7317       2    7293    7314       2    7290    7302       2
    7284    7302       2    7281    7296       2    7278    7293       2    7269
    7290       2    7266    7284       2    7260    7278       2    7260    7281
       2    7257    7278       2    7254    7269       2    7248    7266       2
    7248    7269       2    7245    7260       2    7242    7254       2    7242
    7257       2    7239    7248       2    7236    7239       2    7236    7242
       2    7236    7245       2    7434    7440       2    7431    7440       2
    7425    7434       2    7422    7431       2    7404    7422       2    7404
    7425       2    7401    7422       2    7398    7410       2    7392    7410
       2    7389    7404       2    7386    7401       2    7377    7398       2
    7374    7392       2    7368    7386       2    7368    7389       2    7365
    7386       2    7362    7377       2    7356    7374       2    7356    7377
       2    7353    7368       2    7350    7362       2    7350    7365       2
    7347    7356       2    7344    7347       2    7344    7350       2    7344
    7353       2    7542    7548       2    7539    7548       2    7533    7542
       2    7530    7539       2    7512    7530       2    7512    7533       2
    7509    7530       2    7506    7518       2    7500    7518       2    7497
    7512       2    7494    7509       2    7485    7506       2    7482    7500
       2    7476    7494       2    7476    7497       2    7473    7494       2
    7470    7485       2    7464    7482       2    7464    7485       2    7461
    7476       2    7458    7470       2    7458    7473       2    7455    7464
       2    7452    7455       2    7452    7458       2    7452    7461       2
    7650    7656       2    7647    7656       2    7641    7650       2    7638
    7647       2    7620    7638       2    7620    7641       2    7617    7638
       2    7614    7626       2    7608    7626       2    7605    7620       2
    7602    7617       2    7593    7614       2    7590    7608       2    7584
    7602       2    7584    7605       2    7581    7602       2    7578    7593
       2    7572    7590       2    7572    7593       2    7569    7584       2
    7566    7578       2    7566    7581       2    7563    7572       2    7560
    7563       2    7560    7566       2    7560    7569       2    7758    7764
       2    7755    7764       2    7749    7758       2    7746    7755       2
    7728    7746       2    7728    7749       2    7725    7746       2    7722
    7734       2    7716    7734       2    7713    7728       2    7710    7725
       2    7701    7722       2    7698    7716       2    7692    7710       2
    7692    7713       2    7689    7710       2    7686    7701       2    7680
    7698       2    7680    7701       2    7677    7692       2    7674    7686
       2    7674    7689       2    7671    7680       2    7668    7671       2
    7668    7674       2    7668    7677       2    7866    7872       2    7863
    7872       2    7857    7866       2    7854    7863       2    7836    7854
       2    7836    7857       2    7833    7854       2    7830    7842       2
    7824    7842       2    7821    7836       2    7818    7833       2    7809
    7830       2    7806    7824       2    7800    7818       2    7800    7821
       2    7797    7818       2    7794    7809       2    7788    7806       2
    7788    7809       2    7785    7800       2    7782    7794       2    7782
    7797       2    7779    7788       2    7776    7779       2    7776    7782
       2    7776    7785       2    7974    7980       2    7971    7980       2
    7965    7974       2    7962    7971       2    7944    7962       2    7944
    7965       2    7941    7962       2    7938    7950       2    7932    7950
       2    7929    7944       2    7926    7941       2    7917    7938       2
    7914    7932       2    7908    7926       2    7908    7929       2    7905
    7926       2    7902    7917       2    7896    7914       2    7896    7917
       2    7893    7908       2    7890    7902       2    7890    7905       2
    7887    7896       2    7884    7887       2    7884    7890       2    7884
    7893       2    8082    8088       2    8079    8088       2    8073    8082
       2    8070    8079       2    8052    8070       2    8052    8073       2
    8049    8070       2    8046    8058       2    8040    8058       2    8037
    8052       2    8034    8049       2    8025    8046       2    8022    8040
       2    8016    8034       2    8016    8037       2    8013    8034       2
    8010    8025       2    8004    8022       2    8004    8025       2    8001
    8016       2    7998    8010       2    7998    8013       2    7995    8004
       2    7992    7995       2    7992    7998       2    7992    8001       2
    8190    8196       2    8187    8196       2    8181    8190       2    8178
    8187       2    8160    8178       2    8160    8181       2    8157    8178
       2    8154    8166       2    8148    8166       2    8145    8160       2
    8142    8157       2    8133    8154       2    8130    8148       2    8124
    8142       2    8124    8145       2    8121    8142       2    8118    8133
       2    8112    8130       2    8112    8133       2    8109    8124       2
    8106    8118       2    8106    8121       2    8103    8112       2    8100
    8103       2    8100    8106       2    8100    8109       2    8298    8304
       2    8295    8304       2    8289    8298       2    8286    8295       2
    8268    8286       2    8268    8289       2    8265    8286       2    8262
    8274       2    8256    8274       2    8253    8268       2    8250    8265
       2    8241    8262       2    8238    8256       2    8232    8250       2
    8232    8253       2    8229    8250       2    8226    8241       2    8220
    8238       2    8220    8241       2    8217    8232       2    8214    8226
       2    8214    8229       2    8211    8220       2    8208    8211       2
    8208    8214       2    8208    8217       2    8406    8412       2    8403
    8412       2    8397    8406       2    8394    8403       2    8376    8394
       2    8376    8397       2    8373    8394       2    8370    8382       2
    8364    8382       2    8361    8376       2    8358    8373       2    8349
    8370       2    8346    8364       2    8340    8358       2    8340    8361
       2    8337    8358       2    8334    8349       2    8328    8346       2
    8328    8349       2    8325    8340       2    8322    8334       2    8322
    8337       2    8319    8328       2    8316    8319       2    8316    8322
       2    8316    8325       2    8514    8520       2    8511    8520       2
    8505    8514       2    8502    8511       2    8484    8502       2    8484
    8505       2    8481    8502       2    8478    8490       2    8472    8490
       2    8469    8484       2    8466    8481       2    8457    8478       2
    8454    8472       2    8448    8466       2    8448    8469       2    8445
    8466       2    8442    8457       2    8436    8454       2    8436    8457
       2    8433    8448       2    8430    8442       2    8430    8445       2
    8427    8436       2    8424    8427       2    8424    8430       2    8424
    8433       2    8622    8628       2    8619    8628       2    8613    8622
       2    8610    8619       2    8592    8610       2    8592    8613       2
    8589    8610       2    8586    8598       2    8580    8598       2    8577
    8592       2    8574    8589       2    8565    8586       2    8562    8580
       2    8556    8574       2    8556    8577       2    8553    8574       2
    8550    8565       2    8544    8562       2    8544    8565       2    8541
    8556       2    8538    8550       2    8538    8553       2    8535    8544
       2    8532    8535       2    8532    8538       2    8532    8541       2
    8730    8736       2    8727    8736       2    8721    8730       2    8718
    8727       2    8700    8718       2    8700    8721       2    8697    8718
       2    8694    8706       2    8688    8706       2    8685    8700       2
    8682    8697       2    8673    8694       2    8670    8688       2    8664
    8682       2    8664    8685       2    8661    8682       2    8658    8673
       2    8652    8670       2    8652    8673       2    8649    8664       2
    8646    8658       2    8646    8661       2    8643    8652       2    8640
    8643       2    8640    8646       2    8640    8649       2    8838    8844
       2    8835    8844       2    8829    8838       2    8826    8835       2
    8808    8826       2    8808    8829       2    8805    8826       2    8802
    8814       2    8796    8814       2    8793    8808       2    8790    8805
       2    8781    8802       2    8778    8796       2    8772    8790       2
    8772    8793       2    8769    8790       2    8766    8781       2    8760
    8778       2    8760    8781       2    8757    8772       2    8754    8766
       2    8754    8769       2    8751    8760       2    8748    8751       2
    8748    8754       2    8748    8757       2    8946    8952       2    8943
    8952       2    8937    8946       2    8934    8943       2    8916    8934
       2    8916    8937       2    8913    8934       2    8910    8922       2
    8904    8922       2    8901    8916       2    8898    8913       2    8889
    8910       2    8886    8904       2    8880    8898       2    8880    8901
       2    8877    8898       2    8874    8889       2    8868    8886       2
    8868    8889       2    8865    8880       2    8862    8874       2    8862
    8877       2    8859    8868       2    8856    8859       2    8856    8862
       2    8856    8865       2    9054    9060       2    9051    9060       2
    9045    9054       2    9042    9051       2    9024    9042       2    9024
    9045       2    9021    9042       2    9018    9030       2    9012    9030
       2    9009    9024       2    9006    9021       2    8997    9018       2
    8994    9012       2    8988    9006       2    8988    9009       2    8985
    9006       2    8982    8997       2    8976    8994       2    8976    8997
       2    8973    8988       2    8970    8982       2    8970    8985       2
    8967    8976       2    8964    8967       2    8964    8970       2    8964
    8973       2    9162    9168       2    9159    9168       2    9153    9162
       2    9150    9159       2    9132    9150       2    9132    9153       2
    9129    9150       2    9126    9138       2    9120    9138       2    9117
    9132       2    9114    9129       2    9105    9126       2    9102    9120
       2    9096    9114       2    9096    9117       2    9093    9114       2
    9090    9105       2    9084    9102       2    9084    9105       2    9081
    9096       2    9078    9090       2    9078    9093       2    9075    9084
       2    9072    9075       2    9072    9078       2    9072    9081       2
    9270    9276       2    9267    9276       2    9261    9270       2    9258
    9267       2    9240    9258       2    9240    9261       2    9237    9258
       2    9234    9246       2    9228    9246       2    9225    9240       2
    9222    9237       2    9213    9234       2    9210    9228       2    9204
    9222       2    9204    9225       2    9201    9222       2    9198    9213
       2    9192    9210       2    9192    9213       2    9189    9204       2
    9186    9198       2    9186    9201       2    9183    9192       2    9180
    9183       2    9180    9186       2    9180    9189       2    9378    9384
       2    9375    9384       2    9369    9378       2    9366    9375       2
    9348    9366       2    9348    9369       2    9345    9366       2    9342
    9354       2    9336    9354       2    9333    9348       2    9330    9345
       2    9321    9342       2    9318    9336       2    9312    9330       2
    9312    9333       2    9309    9330       2    9306    9321       2    9300
    9318       2    9300    9321       2    9297    9312       2    9294    9306
       2    9294    9309       2    9291    9300       2    9288    9291       2
    9288    9294       2    9288    9297       2    9486    9492       2    9483
    9492       2    9477    9486       2    9474    9483       2    9456    9474
       2    9456    9477       2    9453    9474       2    9450    9462       2
    9444    9462       2    9441    9456       2    9438    9453       2    9429
    9450       2    9426    9444       2    9420    9438       2    9420    9441
       2    9417    9438       2    9414    9429       2    9408    9426       2
    9408    9429       2    9405    9420       2    9402    9414       2    9402
    9417       2    9399    9408       2    9396    9399       2    9396    9402
       2    9396    9405       2    9594    9600       2    9591    9600       2
    9585    9594       2    9582    9591       2    9564    9582       2    9564
    9585       2    9561    9582       2    9558    9570       2    9552    9570
       2    9549    9564       2    9546    9561       2    9537    9558       2
    9534    9552       2    9528    9546       2    9528    9549       2    9525
    9546       2    9522    9537       2    9516    9534       2    9516    9537
       2    9513    9528       2    9510    9522       2    9510    9525       2
    9507    9516       2    9504    9507       2    9504    9510       2    9504
    9513       2    9702    9708       2    9699    9708       2    9693    9702
       2    9690    9699       2    9672    9690       2    9672    9693       2
    9669    9690       2    9666    9678       2    9660    9678       2    9657
    9672       2    9654    9669       2    9645    9666       2    9642    9660
       2    9636    9654       2    9636    9657       2    9633    9654       2
    9630    9645       2    9624    9642       2    9624    9645       2    9621
    9636       2    9618    9630       2    9618    9633       2    9615    9624
       2    9612    9615       2    9612    9618       2    9612    9621       2
    9810    9816       2    9807    9816       2    9801    9810       2    9798
    9807       2    9780    9798       2    9780    9801       2    9777    9798
       2    9774    9786       2    9768    9786       2    9765    9780       2
    9762    9777       2    9753    9774       2    9750    9768       2    9744
    9762       2    9744    9765       2    9741    9762       2    9738    9753
       2    9732    9750       2    9732    9753       2    9729    9744       2
    9726    9738       2    9726    9741       2    9723    9732       2    9720
    9723       2    9720    9726       2    9720    9729       2    9918    9924
       2    9915    9924       2    9909    9918       2    9906    9915       2
    9888    9906       2    9888    9909       2    9885    9906       2    9882
    9894       2    9876    9894       2    9873    9888       2    9870    9885
       2    9861    9882       2    9858    9876       2    9852    9870       2
    9852    9873       2    9849    9870       2    9846    9861       2    9840
    9858       2    9840    9861       2    9837    9852       2    9834    9846
       2    9834    9849       2    9831    9840       2    9828    9831       2
    9828    9834       2    9828    9837       2   10026   10032       2   10023
   10032       2   10017   10026       2   10014   10023       2    9996   10014
       2    9996   10017       2    9993   10014       2    9990   10002       2
    9984   10002       2    9981    9996       2    9978    9993       2    9969
    9990       2    9966    9984       2    9960    9978       2    9960    9981
       2    9957    9978       2    9954    9969       2    9948    9966       2
    9948    9969       2    9945    9960       2    9942    9954       2    9942
    9957       2    9939    9948       2    9936    9939       2    9936    9942
       2    9936    9945       2   10134   10140       2   10131   10140       2
   10125   10134       2   10122   10131       2   10104   10122       2   10104
   10125       2   10101   10122       2   10098   10110       2   10092   10110
       2   10089   10104       2   10086   10101       2   10077   10098       2
   10074   10092       2   10068   10086       2   10068   10089       2   10065
   10086       2   10062   10077       2   10056   10074       2   10056   10077
       2   10053   10068       2   10050   10062       2   10050   10065       2
   10047   10056       2   10044   10047       2   10044   10050       2   10044
   10053       2   10242   10248       2   10239   10248       2   10233   10242
       2   10230   10239       2   10212   10230       2   10212   10233       2
   10209   10230       2   10206   10218       2   10200   10218       2   10197
   10212       2   10194   10209       2   10185   10206       2   10182   10200
       2   10176   10194       2   10176   10197       2   10173   10194       2
   10170   10185       2   10164   10182       2   10164   10185       2   10161
   10176       2   10158   10170       2   10158   10173       2   10155   10164
       2   10152   10155       2   10152   10158       2   10152   10161       2
   10350   10356       2   10347   10356       2   10341   10350       2   10338
   10347       2   10320   10338       2   10320   10341       2   10317   10338
       2   10314   10326       2   10308   10326       2   10305   10320       2
   10302   10317       2   10293   10314       2   10290   10308       2   10284
   10302       2   10284   10305       2   10281   10302       2   10278   10293
       2   10272   10290       2   10272   10293       2   10269   10284       2
   10266   10278       2   10266   10281       2   10263   10272       2   10260
   10263       2   10260   10266       2   10260   10269       2   10458   10464
       2   10455   10464       2   10449   10458       2   10446   10455       2
   10428   10446       2   10428   10449       2   10425   10446       2   10422
   10434       2   10416   10434       2   10413   10428       2   10410   10425
       2   10401   10422       2   10398   10416       2   10392   10410       2
   10392   10413       2   10389   10410       2   10386   10401       2   10380
   10398       2   10380   10401       2   10377   10392       2   10374   10386
       2   10374   10389       2   10371   10380       2   10368   10371       2
   10368   10374       2   10368   10377       2   10566   10572       2   10563
   10572       2   10557   10566       2   10554   10563       2   10536   10554
       2   10536   10557       2   10533   10554       2   10530   10542       2
   10524   10542       2   10521   10536       2   10518   10533       2   10509
   10530       2   10506   10524       2   10500   10518       2   10500   10521
       2   10497   10518       2   10494   10509       2   10488   10506       2
   10488   10509       2   10485   10500       2   10482   10494       2   10482
   10497       2   10479   10488       2   10476   10479       2   10476   10482
       2   10476   10485       2   10674   10680       2   10671   10680       2
   10665   10674       2   10662   10671       2   10644   10662       2   10644
   10665       2   10641   10662       2   10638   10650       2   10632   10650
       2   10629   10644       2   10626   10641       2   10617   10638       2
   10614   10632       2   10608   10626       2   10608   10629       2   10605
   10626       2   10602   10617       2   10596   10614       2   10596   10617
       2   10593   10608       2   10590   10602       2   10590   10605       2
   10587   10596       2   10584   10587       2   10584   10590       2   10584
   10593       2   10782   10788       2   10779   10788       2   10773   10782
       2   10770   10779       2   10752   10770       2   10752   10773       2
   10749   10770       2   10746   10758       2   10740   10758       2   10737
   10752       2   10734   10749       2   10725   10746       2   10722   10740
       2   10716   10734       2   10716   10737       2   10713   10734       2
   10710   10725       2   10704   10722       2   10704   10725       2   10701
   10716       2   10698   10710       2   10698   10713       2   10695   10704
       2   10692   10695       2   10692   10698       2   10692   10701       2
   10890   10896       2   10887   10896       2   10881   10890       2   10878
   10887       2   10860   10878       2   10860   10881       2   10857   10878
       2   10854   10866       2   10848   10866       2   10845   10860       2
   10842   10857       2   10833   10854       2   10830   10848       2   10824
   10842       2   10824   10845       2   10821   10842       2   10818   10833
       2   10812   10830       2   10812   10833       2   10809   10824       2
   10806   10818       2   10806   10821       2   10803   10812       2   10800
   10803       2   10800   10806       2   10800   10809       2   10998   11004
       2   10995   11004       2   10989   10998       2   10986   10995       2
   10968   10986       2   10968   10989       2   10965   10986       2   10962
   10974       2   10956   10974       2   10953   10968       2   10950   10965
       2   10941   10962       2   10938   10956       2   10932   10950       2
   10932   10953       2   10929   10950       2   10926   10941       2   10920
   10938       2   10920   10941       2   10917   10932       2   10914   10926
       2   10914   10929       2   10911   10920       2   10908   10911       2
   10908   10914       2   10908   10917       2   11106   11112       2   11103
   11112       2   11097   11106       2   11094   11103       2   11076   11094
       2   11076   11097       2   11073   11094       2   11070   11082       2
   11064   11082       2   11061   11076       2   11058   11073       2   11049
   11070       2   11046   11064       2   11040   11058       2   11040   11061
       2   11037   11058       2   11034   11049       2   11028   11046       2
   11028   11049       2   11025   11040       2   11022   11034       2   11022
   11037       2   11019   11028       2   11016   11019       2   11016   11022
       2   11016   11025       2   11214   11220       2   11211   11220       2
   11205   11214       2   11202   11211       2   11184   11202       2   11184
   11205       2   11181   11202       2   11178   11190       2   11172   11190
       2   11169   11184       2   11166   11181       2   11157   11178       2
   11154   11172       2   11148   11166       2   11148   11169       2   11145
   11166       2   11142   11157       2   11136   11154       2   11136   11157
       2   11133   11148       2   11130   11142       2   11130   11145       2
   11127   11136       2   11124   11127       2   11124   11130       2   11124
   11133       2   11322   11328       2   11319   11328       2   11313   11322
       2   11310   11319       2   11292   11310       2   11292   11313       2
   11289   11310       2   11286   11298       2   11280   11298       2   11277
   11292       2   11274   11289       2   11265   11286       2   11262   11280
       2   11256   11274       2   11256   11277       2   11253   11274       2
   11250   11265       2   11244   11262       2   11244   11265       2   11241
   11256       2   11238   11250       2   11238   11253       2   11235   11244
       2   11232   11235       2   11232   11238       2   11232   11241       2
   11430   11436       2   11427   11436       2   11421   11430       2   11418
   11427       2   11400   11418       2   11400   11421       2   11397   11418
       2   11394   11406       2   11388   11406       2   11385   11400       2
   11382   11397       2   11373   11394       2   11370   11388       2   11364
   11382       2   11364   11385       2   11361   11382       2   11358   11373
       2   11352   11370       2   11352   11373       2   11349   11364       2
   11346   11358       2   11346   11361       2   11343   11352       2   11340
   11343       2   11340   11346       2   11340   11349       2   11538   11544
       2   11535   11544       2   11529   11538       2   11526   11535       2
   11508   11526       2   11508   11529       2   11505   11526       2   11502
   11514       2   11496   11514       2   11493   11508       2   11490   11505
       2   11481   11502       2   11478   11496       2   11472   11490       2
   11472   11493       2   11469   11490       2   11466   11481       2   11460
   11478       2   11460   11481       2   11457   11472       2   11454   11466
       2   11454   11469       2   11451   11460       2   11448   11451       2
   11448   11454       2   11448   11457       2   11646   11652       2   11643
   11652       2   11637   11646       2   11634   11643       2   11616   11634
       2   11616   11637       2   11613   11634       2   11610   11622       2
   11604   11622       2   11601   11616       2   11598   11613       2   11589
   11610       2   11586   11604       2   11580   11598       2   11580   11601
       2   11577   11598       2   11574   11589       2   11568   11586       2
   11568   11589       2   11565   11580       2   11562   11574       2   11562
   11577       2   11559   11568       2   11556   11559       2   11556   11562
       2   11556   11565       2   11754   11760       2   11751   11760       2
   11745   11754       2   11742   11751       2   11724   11742       2   11724
   11745       2   11721   11742       2   11718   11730       2   11712   11730
       2   11709   11724       2   11706   11721       2   11697   11718       2
   11694   11712       2   11688   11706       2   11688   11709       2   11685
   11706       2   11682   11697       2   11676   11694       2   11676   11697
       2   11673   11688       2   11670   11682       2   11670   11685       2
   11667   11676       2   11664   11667       2   11664   11670       2   11664
   11673       2   11862   11868       2   11859   11868       2   11853   11862
       2   11850   11859       2   11832   11850       2   11832   11853       2
   11829   11850       2   11826   11838       2   11820   11838       2   11817
   11832       2   11814   11829       2   11805   11826       2   11802   11820
       2   11796   11814       2   11796   11817       2   11793   11814       2
   11790   11805       2   11784   11802       2   11784   11805       2   11781
   11796       2   11778   11790       2   11778   11793       2   11775   11784
       2   11772   11775       2   11772   11778       2   11772   11781       2
   11970   11976       2   11967   11976       2   11961   11970       2   11958
   11967       2   11940   11958       2   11940   11961       2   11937   11958
       2   11934   11946       2   11928   11946       2   11925   11940       2
   11922   11937       2   11913   11934       2   11910   11928       2   11904
   11922       2   11904   11925       2   11901   11922       2   11898   11913
       2   11892   11910       2   11892   11913       2   11889   11904       2
   11886   11898       2   11886   11901       2   11883   11892       2   11880
   11883       2   11880   11886       2   11880   11889       2   12078   12084
       2   12075   12084       2   12069   12078       2   12066   12075       2
   12048   12066       2   12048   12069       2   12045   12066       2   12042
   12054       2   12036   12054       2   12033   12048       2   12030   12045
       2   12021   12042       2   12018   12036       2   12012   12030       2
   12012   12033       2   12009   12030       2   12006   12021       2   12000
   12018       2   12000   12021       2   11997   12012       2   11994   12006
       2   11994   12009       2   11991   12000       2   11988   11991       2
   11988   11994       2   11988   11997       2   12186   12192       2   12183
   12192       2   12177   12186       2   12174   12183       2   12156   12174
       2   12156   12177       2   12153   12174       2   12150   12162       2
   12144   12162       2   12141   12156       2   12138   12153       2   12129
   12150       2   12126   12144       2   12120   12138       2   12120   12141
       2   12117   12138       2   12114   12129       2   12108   12126       2
   12108   12129       2   12105   12120       2   12102   12114       2   12102
   12117       2   12099   12108       2   12096   12099       2   12096   12102
       2   12096   12105       2   12294   12300       2   12291   12300       2
   12285   12294       2   12282   12291       2   12264   12282       2   12264
   12285       2   12261   12282       2   12258   12270       2   12252   12270
       2   12249   12264       2   12246   12261       2   12237   12258       2
   12234   12252       2   12228   12246       2   12228   12249       2   12225
   12246       2   12222   12237       2   12216   12234       2   12216   12237
       2   12213   12228       2   12210   12222       2   12210   12225       2
   12207   12216       2   12204   12207       2   12204   12210       2   12204
   12213       2   12402   12408       2   12399   12408       2   12393   12402
       2   12390   12399       2   12372   12390       2   12372   12393       2
   12369   12390       2   12366   12378       2   12360   12378       2   12357
   12372       2   12354   12369       2   12345   12366       2   12342   12360
       2   12336   12354       2   12336   12357       2   12333   12354       2
   12330   12345       2   12324   12342       2   12324   12345       2   12321
   12336       2   12318   12330       2   12318   12333       2   12315   12324
       2   12312   12315       2   12312   12318       2   12312   12321       2
   12510   12516       2   12507   12516       2   12501   12510       2   12498
   12507       2   12480   12498       2   12480   12501       2   12477   12498
       2   12474   12486       2   12468   12486       2   12465   12480       2
   12462   12477       2   12453   12474       2   12450   12468       2   12444
   12462       2   12444   12465       2   12441   12462       2   12438   12453
       2   12432   12450       2   12432   12453       2   12429   12444       2
   12426   12438       2   12426   12441       2   12423   12432       2   12420
   12423       2   12420   12426       2   12420   12429       2   12618   12624
       2   12615   12624       2   12609   12618       2   12606   12615       2
   12588   12606       2   12588   12609       2   12585   12606       2   12582
   12594       2   12576   12594       2   12573   12588       2   12570   12585
       2   12561   12582       2   12558   12576       2   12552   12570       2
   12552   12573       2   12549   12570       2   12546   12561       2   12540
   12558       2   12540   12561       2   12537   12552       2   12534   12546
       2   12534   12549       2   12531   12540       2   12528   12531       2
   12528   12534       2   12528   12537       2   12726   12732       2   12723
   12732       2   12717   12726       2   12714   12723       2   12696   12714
       2   12696   12717       2   12693   12714       2   12690   12702       2
   12684   12702       2   12681   12696       2   12678   12693       2   12669
   12690       2   12666   12684       2   12660   12678       2   12660   12681
       2   12657   12678       2   12654   12669       2   12648   12666       2
   12648   12669       2   12645   12660       2   12642   12654       2   12642
   12657       2   12639   12648       2   12636   12639       2   12636   12642
       2   12636   12645       2   12834   12840       2   12831   12840       2
   12825   12834       2   12822   12831       2   12804   12822       2   12804
   12825       2   12801   12822       2   12798   12810       2   12792   12810
       2   12789   12804       2   12786   12801       2   12777   12798       2
   12774   12792       2   12768   12786       2   12768   12789       2   12765
   12786       2   12762   12777       2   12756   12774       2   12756   12777
       2   12753   12768       2   12750   12762       2   12750   12765       2
   12747   12756       2   12744   12747       2   12744   12750       2   12744
   12753       2   12942   12948       2   12939   12948       2   12933   12942
       2   12930   12939       2   12912   12930       2   12912   12933       2
   12909   12930       2   12906   12918       2   12900   12918       2   12897
   12912       2   12894   12909       2   12885   12906       2   12882   12900
       2   12876   12894       2   12876   12897       2   12873   12894       2
   12870   12885       2   12864   12882       2   12864   12885       2   12861
   12876       2   12858   12870       2   12858   12873       2   12855   12864
       2   12852   12855       2   12852   12858       2   12852   12861       2
   13050   13056       2   13047   13056       2   13041   13050       2   13038
   13047       2   13020   13038       2   13020   13041       2   13017   13038
       2   13014   13026       2   13008   13026       2   13005   13020       2
   13002   13017       2   12993   13014       2   12990   13008       2   12984
   13002       2   12984   13005       2   12981   13002       2   12978   12993
       2   12972   12990       2   12972   12993       2   12969   12984       2
   12966   12978       2   12966   12981       2   12963   12972       2   12960
   12963       2   12960   12966       2   12960   12969       2   13158   13164
       2   13155   13164       2   13149   13158       2   13146   13155       2
   13128   13146       2   13128   13149       2   13125   13146       2   13122
   13134       2   13116   13134       2   13113   13128       2   13110   13125
       2   13101   13122       2   13098   13116       2   13092   13110       2
   13092   13113       2   13089   13110       2   13086   13101       2   13080
   13098       2   13080   13101       2   13077   13092       2   13074   13086
       2   13074   13089       2   13071   13080       2   13068   13071       2
   13068   13074       2   13068   13077       2   13266   13272       2   13263
   13272       2   13257   13266       2   13254   13263       2   13236   13254
       2   13236   13257       2   13233   13254       2   13230   13242       2
   13224   13242       2   13221   13236       2   13218   13233       2   13209
   13230       2   13206   13224       2   13200   13218       2   13200   13221
       2   13197   13218       2   13194   13209       2   13188   13206       2
   13188   13209       2   13185   13200       2   13182   13194       2   13182
   13197       2   13179   13188       2   13176   13179       2   13176   13182
       2   13176   13185       2   13374   13380       2   13371   13380       2
   13365   13374       2   13362   13371       2   13344   13362       2   13344
   13365       2   13341   13362       2   13338   13350       2   13332   13350
       2   13329   13344       2   13326   13341       2   13317   13338       2
   13314   13332       2   13308   13326       2   13308   13329       2   13305
   13326       2   13302   13317       2   13296   13314       2   13296   13317
       2   13293   13308       2   13290   13302       2   13290   13305       2
   13287   13296       2   13284   13287       2   13284   13290       2   13284
   13293       2   13482   13488       2   13479   13488       2   13473   13482
       2   13470   13479       2   13452   13470       2   13452   13473       2
   13449   13470       2   13446   13458       2   13440   13458       2   13437
   13452       2   13434   13449       2   13425   13446       2   13422   13440
       2   13416   13434       2   13416   13437       2   13413   13434       2
   13410   13425       2   13404   13422       2   13404   13425       2   13401
   13416       2   13398   13410       2   13398   13413       2   13395   13404
       2   13392   13395       2   13392   13398       2   13392   13401       2
   13590   13596       2   13587   13596       2   13581   13590       2   13578
   13587       2   13560   13578       2   13560   13581       2   13557   13578
       2   13554   13566       2   13548   13566       2   13545   13560       2
   13542   13557       2   13533   13554       2   13530   13548       2   13524
   13542       2   13524   13545       2   13521   13542       2   13518   13533
       2   13512   13530       2   13512   13533       2   13509   13524       2
   13506   13518       2   13506   13521       2   13503   13512       2   13500
   13503       2   13500   13506       2   13500   13509       2   13698   13704
       2   13695   13704       2   13689   13698       2   13686   13695       2
   13668   13686       2   13668   13689       2   13665   13686       2   13662
   13674       2   13656   13674       2   13653   13668       2   13650   13665
       2   13641   13662       2   13638   13656       2   13632   13650       2
   13632   13653       2   13629   13650       2   13626   13641       2   13620
   13638       2   13620   13641       2   13617   13632       2   13614   13626
       2   13614   13629       2   13611   13620       2   13608   13611       2
   13608   13614       2   13608   13617       2   13806   13812       2   13803
   13812       2   13797   13806       2   13794   13803       2   13776   13794
       2   13776   13797       2   13773   13794       2   13770   13782       2
   13764   13782       2   13761   13776       2   13758   13773       2   13749
   13770       2   13746   13764       2   13740   13758       2   13740   13761
       2   13737   13758       2   13734   13749       2   13728   13746       2
   13728   13749       2   13725   13740       2   13722   13734       2   13722
   13737       2   13719   13728       2   13716   13719       2   13716   13722
       2   13716   13725       2   13914   13920       2   13911   13920       2
   13905   13914       2   13902   13911       2   13884   13902       2   13884
   13905       2   13881   13902       2   13878   13890       2   13872   13890
       2   13869   13884       2   13866   13881       2   13857   13878       2
   13854   13872       2   13848   13866       2   13848   13869       2   13845
   13866       2   13842   13857       2   13836   13854       2   13836   13857
       2   13833   13848       2   13830   13842       2   13830   13845       2
   13827   13836       2   13824   13827       2   13824   13830       2   13824
   13833       2   14022   14028       2   14019   14028       2   14013   14022
       2   14010   14019       2   13992   14010       2   13992   14013       2
   13989   14010       2   13986   13998       2   13980   13998       2   13977
   13992       2   13974   13989       2   13965   13986       2   13962   13980
       2   13956   13974       2   13956   13977       2   13953   13974       2
   13950   13965       2   13944   13962       2   13944   13965       2   13941
   13956       2   13938   13950       2   13938   13953       2   13935   13944
       2   13932   13935       2   13932   13938       2   13932   13941       2
   14130   14136       2   14127   14136       2   14121   14130       2   14118
   14127       2   14100   14118       2   14100   14121       2   14097   14118
       2   14094   14106       2   14088   14106       2   14085   14100       2
   14082   14097       2   14073   14094       2   14070   14088       2   14064
   14082       2   14064   14085       2   14061   14082       2   14058   14073
       2   14052   14070       2   14052   14073       2   14049   14064       2
   14046   14058       2   14046   14061       2   14043   14052       2   14040
   14043       2   14040   14046       2   14040   14049       2   14238   14244
       2   14235   14244       2   14229   14238       2   14226   14235       2
   14208   14226       2   14208   14229       2   14205   14226       2   14202
   14214       2   14196   14214       2   14193   14208       2   14190   14205
       2   14181   14202       2   14178   14196       2   14172   14190       2
   14172   14193       2   14169   14190       2   14166   14181       2   14160
   14178       2   14160   14181       2   14157   14172       2   14154   14166
       2   14154   14169       2   14151   14160       2   14148   14151       2
   14148   14154       2   14148   14157       2   14346   14352       2   14343
   14352       2   14337   14346       2   14334   14343       2   14316   14334
       2   14316   14337       2   14313   14334       2   14310   14322       2
   14304   14322       2   14301   14316       2   14298   14313       2   14289
   14310       2   14286   14304       2   14280   14298       2   14280   14301
       2   14277   14298       2   14274   14289       2   14268   14286       2
   14268   14289       2   14265   14280       2   14262   14274       2   14262
   14277       2   14259   14268       2   14256   14259       2   14256   14262
       2   14256   14265       2   14454   14460       2   14451   14460       2
   14445   14454       2   14442   14451       2   14424   14442       2   14424
   14445       2   14421   14442       2   14418   14430       2   14412   14430
       2   14409   14424       2   14406   14421       2   14397   14418       2
   14394   14412       2   14388   14406       2   14388   14409       2   14385
   14406       2   14382   14397       2   14376   14394       2   14376   14397
       2   14373   14388       2   14370   14382       2   14370   14385       2
   14367   14376       2   14364   14367       2   14364   14370       2   14364
   14373       2   14562   14568       2   14559   14568       2   14553   14562
       2   14550   14559       2   14532   14550       2   14532   14553       2
   14529   14550       2   14526   14538       2   14520   14538       2   14517
   14532       2   14514   14529       2   14505   14526       2   14502   14520
       2   14496   14514       2   14496   14517       2   14493   14514       2
   14490   14505       2   14484   14502       2   14484   14505       2   14481
   14496       2   14478   14490       2   14478   14493       2   14475   14484
       2   14472   14475       2   14472   14478       2   14472   14481       2
   14670   14676       2   14667   14676       2   14661   14670       2   14658
   14667       2   14640   14658       2   14640   14661       2   14637   14658
       2   14634   14646       2   14628   14646       2   14625   14640       2
   14622   14637       2   14613   14634       2   14610   14628       2   14604
   14622       2   14604   14625       2   14601   14622       2   14598   14613
       2   14592   14610       2   14592   14613       2   14589   14604       2
   14586   14598       2   14586   14601       2   14583   14592       2   14580
   14583       2   14580   14586       2   14580   14589       2   14778   14784
       2   14775   14784       2   14769   14778       2   14766   14775       2
   14748   14766       2   14748   14769       2   14745   14766       2   14742
   14754       2   14736   14754       2   14733   14748       2   14730   14745
       2   14721   14742       2   14718   14736       2   14712   14730       2
   14712   14733       2   14709   14730       2   14706   14721       2   14700
   14718       2   14700   14721       2   14697   14712       2   14694   14706
       2   14694   14709       2   14691   14700       2   14688   14691       2
   14688   14694       2   14688   14697       2   14886   14892       2   14883
   14892       2   14877   14886       2   14874   14883       2   14856   14874
       2   14856   14877       2   14853   14874       2   14850   14862       2
   14844   14862       2   14841   14856       2   14838   14853       2   14829
   14850       2   14826   14844       2   14820   14838       2   14820   14841
       2   14817   14838       2   14814   14829       2   14808   14826       2
   14808   14829       2   14805   14820       2   14802   14814       2   14802
   14817       2   14799   14808       2   14796   14799       2   14796   14802
       2   14796   14805       2   14994   15000       2   14991   15000       2
   14985   14994       2   14982   14991       2   14964   14982       2   14964
   14985       2   14961   14982       2   14958   14970       2   14952   14970
       2   14949   14964       2   14946   14961       2   14937   14958       2
   14934   14952       2   14928   14946       2   14928   14949       2   14925
   14946       2   14922   14937       2   14916   14934       2   14916   14937
       2   14913   14928       2   14910   14922       2   14910   14925       2
   14907   14916       2   14904   14907       2   14904   14910       2   14904
   14913       2   15102   15108       2   15099   15108       2   15093   15102
       2   15090   15099       2   15072   15090       2   15072   15093       2
   15069   15090       2   15066   15078       2   15060   15078       2   15057
   15072       2   15054   15069       2   15045   15066       2   15042   15060
       2   15036   15054       2   15036   15057       2   15033   15054       2
   15030   15045       2   15024   15042       2   15024   15045       2   15021
   15036       2   15018   15030       2   15018   15033       2   15015   15024
       2   15012   15015       2   15012   15018       2   15012   15021       2
   15210   15216       2   15207   15216       2   15201   15210       2   15198
   15207       2   15180   15198       2   15180   15201       2   15177   15198
       2   15174   15186       2   15168   15186       2   15165   15180       2
   15162   15177       2   15153   15174       2   15150   15168       2   15144
   15162       2   15144   15165       2   15141   15162       2   15138   15153
       2   15132   15150       2   15132   15153       2   15129   15144       2
   15126   15138       2   15126   15141       2   15123   15132       2   15120
   15123       2   15120   15126       2   15120   15129       2   15318   15324
       2   15315   15324       2   15309   15318       2   15306   15315       2
   15288   15306       2   15288   15309       2   15285   15306       2   15282
   15294       2   15276   15294       2   15273   15288       2   15270   15285
       2   15261   15282       2   15258   15276       2   15252   15270       2
   15252   15273       2   15249   15270       2   15246   15261       2   15240
   15258       2   15240   15261       2   15237   15252       2   15234   15246
       2   15234   15249       2   15231   15240       2   15228   15231       2
   15228   15234       2   15228   15237       2   15426   15432       2   15423
   15432       2   15417   15426       2   15414   15423       2   15396   15414
       2   15396   15417       2   15393   15414       2   15390   15402       2
   15384   15402       2   15381   15396       2   15378   15393       2   15369
   15390       2   15366   15384       2   15360   15378       2   15360   15381
       2   15357   15378       2   15354   15369       2   15348   15366       2
   15348   15369       2   15345   15360       2   15342   15354       2   15342
   15357       2   15339   15348       2   15336   15339       2   15336   15342
       2   15336   15345       2   15534   15540       2   15531   15540       2
   15525   15534       2   15522   15531       2   15504   15522       2   15504
   15525       2   15501   15522       2   15498   15510       2   15492   15510
       2   15489   15504       2   15486   15501       2   15477   15498       2
   15474   15492       2   15468   15486       2   15468   15489       2   15465
   15486       2   15462   15477       2   15456   15474       2   15456   15477
       2   15453   15468       2   15450   15462       2   15450   15465       2
   15447   15456       2   15444   15447       2   15444   15450       2   15444
   15453       2   15642   15648       2   15639   15648       2   15633   15642
       2   15630   15639       2   15612   15630       2   15612   15633       2
   15609   15630       2   15606   15618       2   15600   15618       2   15597
   15612       2   15594   15609       2   15585   15606       2   15582   15600
       2   15576   15594       2   15576   15597       2   15573   15594       2
   15570   15585       2   15564   15582       2   15564   15585       2   15561
   15576       2   15558   15570       2   15558   15573       2   15555   15564
       2   15552   15555       2   15552   15558       2   15552   15561       2
   15750   15756       2   15747   15756       2   15741   15750       2   15738
   15747       2   15720   15738       2   15720   15741       2   15717   15738
       2   15714   15726       2   15708   15726       2   15705   15720       2
   15702   15717       2   15693   15714       2   15690   15708       2   15684
   15702       2   15684   15705       2   15681   15702       2   15678   15693
       2   15672   15690       2   15672   15693       2   15669   15684       2
   15666   15678       2   15666   15681       2   15663   15672       2   15660
   15663       2   15660   15666       2   15660   15669       2   15858   15864
       2   15855   15864       2   15849   15858       2   15846   15855       2
   15828   15846       2   15828   15849       2   15825   15846       2   15822
   15834       2   15816   15834       2   15813   15828       2   15810   15825
       2   15801   15822       2   15798   15816       2   15792   15810       2
   15792   15813       2   15789   15810       2   15786   15801       2   15780
   15798       2   15780   15801       2   15777   15792       2   15774   15786
       2   15774   15789       2   15771   15780       2   15768   15771       2
   15768   15774       2   15768   15777       2   15966   15972       2   15963
   15972       2   15957   15966       2   15954   15963       2   15936   15954
       2   15936   15957       2   15933   15954       2   15930   15942       2
   15924   15942       2   15921   15936       2   15918   15933       2   15909
   15930       2   15906   15924       2   15900   15918       2   15900   15921
       2   15897   15918       2   15894   15909       2   15888   15906       2
   15888   15909       2   15885   15900       2   15882   15894       2   15882
   15897       2   15879   15888       2   15876   15879       2   15876   15882
       2   15876   15885       2   16074   16080       2   16071   16080       2
   16065   16074       2   16062   16071       2   16044   16062       2   16044
   16065       2   16041   16062       2   16038   16050       2   16032   16050
       2   16029   16044       2   16026   16041       2   16017   16038       2
   16014   16032       2   16008   16026       2   16008   16029       2   16005
   16026       2   16002   16017       2   15996   16014       2   15996   16017
       2   15993   16008       2   15990   16002       2   15990   16005       2
   15987   15996       2   15984   15987       2   15984   15990       2   15984
   15993       2   16182   16188       2   16179   16188       2   16173   16182
       2   16170   16179       2   16152   16170       2   16152   16173       2
   16149   16170       2   16146   16158       2   16140   16158       2   16137
   16152       2   16134   16149       2   16125   16146       2   16122   16140
       2   16116   16134       2   16116   16137       2   16113   16134       2
   16110   16125       2   16104   16122       2   16104   16125       2   16101
   16116       2   16098   16110       2   16098   16113       2   16095   16104
       2   16092   16095       2   16092   16098       2   16092   16101       2
   16290   16296       2   16287   16296       2   16281   16290       2   16278
   16287       2   16260   16278       2   16260   16281       2   16257   16278
       2   16254   16266       2   16248   16266       2   16245   16260       2
   16242   16257       2   16233   16254       2   16230   16248       2   16224
   16242       2   16224   16245       2   16221   16242       2   16218   16233
       2   16212   16230       2   16212   16233       2   16209   16224       2
   16206   16218       2   16206   16221       2   16203   16212       2   16200
   16203       2   16200   16206       2   16200   16209       2   16398   16404
       2   16395   16404       2   16389   16398       2   16386   16395       2
   16368   16386       2   16368   16389       2   16365   16386       2   16362
   16374       2   16356   16374       2   16353   16368       2   16350   16365
       2   16341   16362       2   16338   16356       2   16332   16350       2
   16332   16353       2   16329   16350       2   16326   16341       2   16320
   16338       2   16320   16341       2   16317   16332       2   16314   16326
       2   16314   16329       2   16311   16320       2   16308   16311       2
   16308   16314       2   16308   16317       2   16506   16512       2   16503
   16512       2   16497   16506       2   16494   16503       2   16476   16494
       2   16476   16497       2   16473   16494       2   16470   16482       2
   16464   16482       2   16461   16476       2   16458   16473       2   16449
   16470       2   16446   16464       2   16440   16458       2   16440   16461
       2   16437   16458       2   16434   16449       2   16428   16446       2
   16428   16449       2   16425   16440       2   16422   16434       2   16422
   16437       2   16419   16428       2   16416   16419       2   16416   16422
       2   16416   16425       2   16614   16620       2   16611   16620       2
   16605   16614       2   16602   16611       2   16584   16602       2   16584
   16605       2   16581   16602       2   16578   16590       2   16572   16590
       2   16569   16584       2   16566   16581       2   16557   16578       2
   16554   16572       2   16548   16566       2   16548   16569       2   16545
   16566       2   16542   16557       2   16536   16554       2   16536   16557
       2   16533   16548       2   16530   16542       2   16530   16545       2
   16527   16536       2   16524   16527       2   16524   16530       2   16524
   16533       2   16722   16728       2   16719   16728       2   16713   16722
       2   16710   16719       2   16692   16710       2   16692   16713       2
   16689   16710       2   16686   16698       2   16680   16698       2   16677
   16692       2   16674   16689       2   16665   16686       2   16662   16680
       2   16656   16674       2   16656   16677       2   16653   16674       2
   16650   16665       2   16644   16662       2   16644   16665       2   16641
   16656       2   16638   16650       2   16638   16653       2   16635   16644
       2   16632   16635       2   16632   16638       2   16632   16641       2
   16830   16836       2   16827   16836       2   16821   16830       2   16818
   16827       2   16800   16818       2   16800   16821       2   16797   16818
       2   16794   16806       2   16788   16806       2   16785   16800       2
   16782   16797       2   16773   16794       2   16770   16788       2   16764
   16782       2   16764   16785       2   16761   16782       2   16758   16773
       2   16752   16770       2   16752   16773       2   16749   16764       2
   16746   16758       2   16746   16761       2   16743   16752       2   16740
   16743       2   16740   16746       2   16740   16749       2   16938   16944
       2   16935   16944       2   16929   16938       2   16926   16935       2
   16908   16926       2   16908   16929       2   16905   16926       2   16902
   16914       2   16896   16914       2   16893   16908       2   16890   16905
       2   16881   16902       2   16878   16896       2   16872   16890       2
   16872   16893       2   16869   16890       2   16866   16881       2   16860
   16878       2   16860   16881       2   16857   16872       2   16854   16866
       2   16854   16869       2   16851   16860       2   16848   16851       2
   16848   16854       2   16848   16857       2   17046   17052       2   17043
   17052       2   17037   17046       2   17034   17043       2   17016   17034
       2   17016   17037       2   17013   17034       2   17010   17022       2
   17004   17022       2   17001   17016       2   16998   17013       2   16989
   17010       2   16986   17004       2   16980   16998       2   16980   17001
       2   16977   16998       2   16974   16989       2   16968   16986       2
   16968   16989       2   16965   16980       2   16962   16974       2   16962
   16977       2   16959   16968       2   16956   16959       2   16956   16962
       2   16956   16965       2   17154   17160       2   17151   17160       2
   17145   17154       2   17142   17151       2   17124   17142       2   17124
   17145       2   17121   17142       2   17118   17130       2   17112   17130
       2   17109   17124       2   17106   17121       2   17097   17118       2
   17094   17112       2   17088   17106       2   17088   17109       2   17085
   17106       2   17082   17097       2   17076   17094       2   17076   17097
       2   17073   17088       2   17070   17082       2   17070   17085       2
   17067   17076       2   17064   17067       2   17064   17070       2   17064
   17073       2   17262   17268       2   17259   17268       2   17253   17262
       2   17250   17259       2   17232   17250       2   17232   17253       2
   17229   17250       2   17226   17238       2   17220   17238       2   17217
   17232       2   17214   17229       2   17205   17226       2   17202   17220
       2   17196   17214       2   17196   17217       2   17193   17214       2
   17190   17205       2   17184   17202       2   17184   17205       2   17181
   17196       2   17178   17190       2   17178   17193       2   17175   17184
       2   17172   17175       2   17172   17178       2   17172   17181       2
   17370   17376       2   17367   17376       2   17361   17370       2   17358
   17367       2   17340   17358       2   17340   17361       2   17337   17358
       2   17334   17346       2   17328   17346       2   17325   17340       2
   17322   17337       2   17313   17334       2   17310   17328       2   17304
   17322       2   17304   17325       2   17301   17322       2   17298   17313
       2   17292   17310       2   17292   17313       2   17289   17304       2
   17286   17298       2   17286   17301       2   17283   17292       2   17280
   17283       2   17280   17286       2   17280   17289       2   17478   17484
       2   17475   17484       2   17469   17478       2   17466   17475       2
   17448   17466       2   17448   17469       2   17445   17466       2   17442
   17454       2   17436   17454       2   17433   17448       2   17430   17445
       2   17421   17442       2   17418   17436       2   17412   17430       2
   17412   17433       2   17409   17430       2   17406   17421       2   17400
   17418       2   17400   17421       2   17397   17412       2   17394   17406
       2   17394   17409       2   17391   17400       2   17388   17391       2
   17388   17394       2   17388   17397       2   17586   17592       2   17583
   17592       2   17577   17586       2   17574   17583       2   17556   17574
       2   17556   17577       2   17553   17574       2   17550   17562       2
   17544   17562       2   17541   17556       2   17538   17553       2   17529
   17550       2   17526   17544       2   17520   17538       2   17520   17541
       2   17517   17538       2   17514   17529       2   17508   17526       2
   17508   17529       2   17505   17520       2   17502   17514       2   17502
   17517       2   17499   17508       2   17496   17499       2   17496   17502
       2   17496   17505       2   17694   17700       2   17691   17700       2
   17685   17694       2   17682   17691       2   17664   17682       2   17664
   17685       2   17661   17682       2   17658   17670       2   17652   17670
       2   17649   17664       2   17646   17661       2   17637   17658       2
   17634   17652       2   17628   17646       2   17628   17649       2   17625
   17646       2   17622   17637       2   17616   17634       2   17616   17637
       2   17613   17628       2   17610   17622       2   17610   17625       2
   17607   17616       2   17604   17607       2   17604   17610       2   17604
   17613       2   17802   17808       2   17799   17808       2   17793   17802
       2   17790   17799       2   17772   17790       2   17772   17793       2
   17769   17790       2   17766   17778       2   17760   17778       2   17757
   17772       2   17754   17769       2   17745   17766       2   17742   17760
       2   17736   17754       2   17736   17757       2   17733   17754       2
   17730   17745       2   17724   17742       2   17724   17745       2   17721
   17736       2   17718   17730       2   17718   17733       2   17715   17724
       2   17712   17715       2   17712   17718       2   17712   17721       2
   17910   17916       2   17907   17916       2   17901   17910       2   17898
   17907       2   17880   17898       2   17880   17901       2   17877   17898
       2   17874   17886       2   17868   17886       2   17865   17880       2
   17862   17877       2   17853   17874       2   17850   17868       2   17844
   17862       2   17844   17865       2   17841   17862       2   17838   17853
       2   17832   17850       2   17832   17853       2   17829   17844       2
   17826   17838       2   17826   17841       2   17823   17832       2   17820
   17823       2   17820   17826       2   17820   17829       2   18018   18024
       2   18015   18024       2   18009   18018       2   18006   18015       2
   17988   18006       2   17988   18009       2   17985   18006       2   17982
   17994       2   17976   17994       2   17973   17988       2   17970   17985
       2   17961   17982       2   17958   17976       2   17952   17970       2
   17952   17973       2   17949   17970       2   17946   17961       2   17940
   17958       2   17940   17961       2   17937   17952       2   17934   17946
       2   17934   17949       2   17931   17940       2   17928   17931       2
   17928   17934       2   17928   17937       2   18126   18132       2   18123
   18132       2   18117   18126       2   18114   18123       2   18096   18114
       2   18096   18117       2   18093   18114       2   18090   18102       2
   18084   18102       2   18081   18096       2   18078   18093       2   18069
   18090       2   18066   18084       2   18060   18078       2   18060   18081
       2   18057   18078       2   18054   18069       2   18048   18066       2
   18048   18069       2   18045   18060       2   18042   18054       2   18042
   18057       2   18039   18048       2   18036   18039       2   18036   18042
       2   18036   18045       2   18234   18240       2   18231   18240       2
   18225   18234       2   18222   18231       2   18204   18222       2   18204
   18225       2   18201   18222       2   18198   18210       2   18192   18210
       2   18189   18204       2   18186   18201       2   18177   18198       2
   18174   18192       2   18168   18186       2   18168   18189       2   18165
   18186       2   18162   18177       2   18156   18174       2   18156   18177
       2   18153   18168       2   18150   18162       2   18150   18165       2
   18147   18156       2   18144   18147       2   18144   18150       2   18144
   18153       2   18342   18348       2   18339   18348       2   18333   18342
       2   18330   18339       2   18312   18330       2   18312   18333       2
   18309   18330       2   18306   18318       2   18300   18318       2   18297
   18312       2   18294   18309       2   18285   18306       2   18282   18300
       2   18276   18294       2   18276   18297       2   18273   18294       2
   18270   18285       2   18264   18282       2   18264   18285       2   18261
   18276       2   18258   18270       2   18258   18273       2   18255   18264
       2   18252   18255       2   18252   18258       2   18252   18261       2
   18450   18456       2   18447   18456       2   18441   18450       2   18438
   18447       2   18420   18438       2   18420   18441       2   18417   18438
       2   18414   18426       2   18408   18426       2   18405   18420       2
   18402   18417       2   18393   18414       2   18390   18408       2   18384
   18402       2   18384   18405       2   18381   18402       2   18378   18393
       2   18372   18390       2   18372   18393       2   18369   18384       2
   18366   18378       2   18366   18381       2   18363   18372       2   18360
   18363       2   18360   18366       2   18360   18369       2   18558   18564
       2   18555   18564       2   18549   18558       2   18546   18555       2
   18528   18546       2   18528   18549       2   18525   18546       2   18522
   18534       2   18516   18534       2   18513   18528       2   18510   18525
       2   18501   18522       2   18498   18516       2   18492   18510       2
   18492   18513       2   18489   18510       2   18486   18501       2   18480
   18498       2   18480   18501       2   18477   18492       2   18474   18486
       2   18474   18489       2   18471   18480       2   18468   18471       2
   18468   18474       2   18468   18477       2   18666   18672       2   18663
   18672       2   18657   18666       2   18654   18663       2   18636   18654
       2   18636   18657       2   18633   18654       2   18630   18642       2
   18624   18642       2   18621   18636       2   18618   18633       2   18609
   18630       2   18606   18624       2   18600   18618       2   18600   18621
       2   18597   18618       2   18594   18609       2   18588   18606       2
   18588   18609       2   18585   18600       2   18582   18594       2   18582
   18597       2   18579   18588       2   18576   18579       2   18576   18582
       2   18576   18585       2   18774   18780       2   18771   18780       2
   18765   18774       2   18762   18771       2   18744   18762       2   18744
   18765       2   18741   18762       2   18738   18750       2   18732   18750
       2   18729   18744       2   18726   18741       2   18717   18738       2
   18714   18732       2   18708   18726       2   18708   18729       2   18705
   18726       2   18702   18717       2   18696   18714       2   18696   18717
       2   18693   18708       2   18690   18702       2   18690   18705       2
   18687   18696       2   18684   18687       2   18684   18690       2   18684
   18693       2   18882   18888       2   18879   18888       2   18873   18882
       2   18870   18879       2   18852   18870       2   18852   18873       2
   18849   18870       2   18846   18858       2   18840   18858       2   18837
   18852       2   18834   18849       2   18825   18846       2   18822   18840
       2   18816   18834       2   18816   18837       2   18813   18834       2
   18810   18825       2   18804   18822       2   18804   18825       2   18801
   18816       2   18798   18810       2   18798   18813       2   18795   18804
       2   18792   18795       2   18792   18798       2   18792   18801       2
   18990   18996       2   18987   18996       2   18981   18990       2   18978
   18987       2   18960   18978       2   18960   18981       2   18957   18978
       2   18954   18966       2   18948   18966       2   18945   18960       2
   18942   18957       2   18933   18954       2   18930   18948       2   18924
   18942       2   18924   18945       2   18921   18942       2   18918   18933
       2   18912   18930       2   18912   18933       2   18909   18924       2
   18906   18918       2   18906   18921       2   18903   18912       2   18900
   18903       2   18900   18906       2   18900   18909       2   19098   19104
       2   19095   19104       2   19089   19098       2   19086   19095       2
   19068   19086       2   19068   19089       2   19065   19086       2   19062
   19074       2   19056   19074       2   19053   19068       2   19050   19065
       2   19041   19062       2   19038   19056       2   19032   19050       2
   19032   19053       2   19029   19050       2   19026   19041       2   19020
   19038       2   19020   19041       2   19017   19032       2   19014   19026
       2   19014   19029       2   19011   19020       2   19008   19011       2
   19008   19014       2   19008   19017       2   19206   19212       2   19203
   19212       2   19197   19206       2   19194   19203       2   19176   19194
       2   19176   19197       2   19173   19194       2   19170   19182       2
   19164   19182       2   19161   19176       2   19158   19173       2   19149
   19170       2   19146   19164       2   19140   19158       2   19140   19161
       2   19137   19158       2   19134   19149       2   19128   19146       2
   19128   19149       2   19125   19140       2   19122   19134       2   19122
   19137       2   19119   19128       2   19116   19119       2   19116   19122
       2   19116   19125       2   19314   19320       2   19311   19320       2
   19305   19314       2   19302   19311       2   19284   19302       2   19284
   19305       2   19281   19302       2   19278   19290       2   19272   19290
       2   19269   19284       2   19266   19281       2   19257   19278       2
   19254   19272       2   19248   19266       2   19248   19269       2   19245
   19266       2   19242   19257       2   19236   19254       2   19236   19257
       2   19233   19248       2   19230   19242       2   19230   19245       2
   19227   19236       2   19224   19227       2   19224   19230       2   19224
   19233       2   19422   19428       2   19419   19428       2   19413   19422
       2   19410   19419       2   19392   19410       2   19392   19413       2
   19389   19410       2   19386   19398       2   19380   19398       2   19377
   19392       2   19374   19389       2   19365   19386       2   19362   19380
       2   19356   19374       2   19356   19377       2   19353   19374       2
   19350   19365       2   19344   19362       2   19344   19365       2   19341
   19356       2   19338   19350       2   19338   19353       2   19335   19344
       2   19332   19335       2   19332   19338       2   19332   19341       2
   19530   19536       2   19527   19536       2   19521   19530       2   19518
   19527       2   19500   19518       2   19500   19521       2   19497   19518
       2   19494   19506       2   19488   19506       2   19485   19500       2
   19482   19497       2   19473   19494       2   19470   19488       2   19464
   19482       2   19464   19485       2   19461   19482       2   19458   19473
       2   19452   19470       2   19452   19473       2   19449   19464       2
   19446   19458       2   19446   19461       2   19443   19452       2   19440
   19443       2   19440   19446       2   19440   19449       2   19638   19644
       2   19635   19644       2   19629   19638       2   19626   19635       2
   19608   19626       2   19608   19629       2   19605   19626       2   19602
   19614       2   19596   19614       2   19593   19608       2   19590   19605
       2   19581   19602       2   19578   19596       2   19572   19590       2
   19572   19593       2   19569   19590       2   19566   19581       2   19560
   19578       2   19560   19581       2   19557   19572       2   19554   19566
       2   19554   19569       2   19551   19560       2   19548   19551       2
   19548   19554       2   19548   19557       2   19746   19752       2   19743
   19752       2   19737   19746       2   19734   19743       2   19716   19734
       2   19716   19737       2   19713   19734       2   19710   19722       2
   19704   19722       2   19701   19716       2   19698   19713       2   19689
   19710       2   19686   19704       2   19680   19698       2   19680   19701
       2   19677   19698       2   19674   19689       2   19668   19686       2
   19668   19689       2   19665   19680       2   19662   19674       2   19662
   19677       2   19659   19668       2   19656   19659       2   19656   19662
       2   19656   19665       2   19854   19860       2   19851   19860       2
   19845   19854       2   19842   19851       2   19824   19842       2   19824
   19845       2   19821   19842       2   19818   19830       2   19812   19830
       2   19809   19824       2   19806   19821       2   19797   19818       2
   19794   19812       2   19788   19806       2   19788   19809       2   19785
   19806       2   19782   19797       2   19776   19794       2   19776   19797
       2   19773   19788       2   19770   19782       2   19770   19785       2
   19767   19776       2   19764   19767       2   19764   19770       2   19764
   19773       2   19962   19968       2   19959   19968       2   19953   19962
       2   19950   19959       2   19932   19950       2   19932   19953       2
   19929   19950       2   19926   19938       2   19920   19938       2   19917
   19932       2   19914   19929       2   19905   19926       2   19902   19920
       2   19896   19914       2   19896   19917       2   19893   19914       2
   19890   19905       2   19884   19902       2   19884   19905       2   19881
   19896       2   19878   19890       2   19878   19893       2   19875   19884
       2   19872   19875       2   19872   19878       2   19872   19881       2
   20070   20076       2   20067   20076       2   20061   20070       2   20058
   20067       2   20040   20058       2   20040   20061       2   20037   20058
       2   20034   20046       2   20028   20046       2   20025   20040       2
   20022   20037       2   20013   20034       2   20010   20028       2   20004
   20022       2   20004   20025       2   20001   20022       2   19998   20013
       2   19992   20010       2   19992   20013       2   19989   20004       2
   19986   19998       2   19986   20001       2   19983   19992       2   19980
   19983       2   19980   19986       2   19980   19989       2   20178   20184
       2   20175   20184       2   20169   20178       2   20166   20175       2
   20148   20166       2   20148   20169       2   20145   20166       2   20142
   20154       2   20136   20154       2   20133   20148       2   20130   20145
       2   20121   20142       2   20118   20136       2   20112   20130       2
   20112   20133       2   20109   20130       2   20106   20121       2   20100
   20118       2   20100   20121       2   20097   20112       2   20094   20106
       2   20094   20109       2   20091   20100       2   20088   20091       2
   20088   20094       2   20088   20097       2   20286   20292       2   20283
   20292       2   20277   20286       2   20274   20283       2   20256   20274
       2   20256   20277       2   20253   20274       2   20250   20262       2
   20244   20262       2   20241   20256       2   20238   20253       2   20229
   20250       2   20226   20244       2   20220   20238       2   20220   20241
       2   20217   20238       2   20214   20229       2   20208   20226       2
   20208   20229       2   20205   20220       2   20202   20214       2   20202
   20217       2   20199   20208       2   20196   20199       2   20196   20202
       2   20196   20205       2   20394   20400       2   20391   20400       2
   20385   20394       2   20382   20391       2   20364   20382       2   20364
   20385       2   20361   20382       2   20358   20370       2   20352   20370
       2   20349   20364       2   20346   20361       2   20337   20358       2
   20334   20352       2   20328   20346       2   20328   20349       2   20325
   20346       2   20322   20337       2   20316   20334       2   20316   20337
       2   20313   20328       2   20310   20322       2   20310   20325       2
   20307   20316       2   20304   20307       2   20304   20310       2   20304
   20313       2   20502   20508       2   20499   20508       2   20493   20502
       2   20490   20499       2   20472   20490       2   20472   20493       2
   20469   20490       2   20466   20478       2   20460   20478       2   20457
   20472       2   20454   20469       2   20445   20466       2   20442   20460
       2   20436   20454       2   20436   20457       2   20433   20454       2
   20430   20445       2   20424   20442       2   20424   20445       2   20421
   20436       2   20418   20430       2   20418   20433       2   20415   20424
       2   20412   20415       2   20412   20418       2   20412   20421       2
   20610   20616       2   20607   20616       2   20601   20610       2   20598
   20607       2   20580   20598       2   20580   20601       2   20577   20598
       2   20574   20586       2   20568   20586       2   20565   20580       2
   20562   20577       2   20553   20574       2   20550   20568       2   20544
   20562       2   20544   20565       2   20541   20562       2   20538   20553
       2   20532   20550       2   20532   20553       2   20529   20544       2
   20526   20538       2   20526   20541       2   20523   20532       2   20520
   20523       2   20520   20526       2   20520   20529       2   20718   20724
       2   20715   20724       2   20709   20718       2   20706   20715       2
   20688   20706       2   20688   20709       2   20685   20706       2   20682
   20694       2   20676   20694       2   20673   20688       2   20670   20685
       2   20661   20682       2   20658   20676       2   20652   20670       2
   20652   20673       2   20649   20670       2   20646   20661       2   20640
   20658       2   20640   20661       2   20637   20652       2   20634   20646
       2   20634   20649       2   20631   20640       2   20628   20631       2
   20628   20634       2   20628   20637       2   20826   20832       2   20823
   20832       2   20817   20826       2   20814   20823       2   20796   20814
       2   20796   20817       2   20793   20814       2   20790   20802       2
   20784   20802       2   20781   20796       2   20778   20793       2   20769
   20790       2   20766   20784       2   20760   20778       2   20760   20781
       2   20757   20778       2   20754   20769       2   20748   20766       2
   20748   20769       2   20745   20760       2   20742   20754       2   20742
   20757       2   20739   20748       2   20736   20739       2   20736   20742
       2   20736   20745       2   20934   20940       2   20931   20940       2
   20925   20934       2   20922   20931       2   20904   20922       2   20904
   20925       2   20901   20922       2   20898   20910       2   20892   20910
       2   20889   20904       2   20886   20901       2   20877   20898       2
   20874   20892       2   20868   20886       2   20868   20889       2   20865
   20886       2   20862   20877       2   20856   20874       2   20856   20877
       2   20853   20868       2   20850   20862       2   20850   20865       2
   20847   20856       2   20844   20847       2   20844   20850       2   20844
   20853       2   21042   21048       2   21039   21048       2   21033   21042
       2   21030   21039       2   21012   21030       2   21012   21033       2
   21009   21030       2   21006   21018       2   21000   21018       2   20997
   21012       2   20994   21009       2   20985   21006       2   20982   21000
       2   20976   20994       2   20976   20997       2   20973   20994       2
   20970   20985       2   20964   20982       2   20964   20985       2   20961
   20976       2   20958   20970       2   20958   20973       2   20955   20964
       2   20952   20955       2   20952   20958       2   20952   20961       2
   21150   21156       2   21147   21156       2   21141   21150       2   21138
   21147       2   21120   21138       2   21120   21141       2   21117   21138
       2   21114   21126       2   21108   21126       2   21105   21120       2
   21102   21117       2   21093   21114       2   21090   21108       2   21084
   21102       2   21084   21105       2   21081   21102       2   21078   21093
       2   21072   21090       2   21072   21093       2   21069   21084       2
   21066   21078       2   21066   21081       2   21063   21072       2   21060
   21063       2   21060   21066       2   21060   21069       2   21258   21264
       2   21255   21264       2   21249   21258       2   21246   21255       2
   21228   21246       2   21228   21249       2   21225   21246       2   21222
   21234       2   21216   21234       2   21213   21228       2   21210   21225
       2   21201   21222       2   21198   21216       2   21192   21210       2
   21192   21213       2   21189   21210       2   21186   21201       2   21180
   21198       2   21180   21201       2   21177   21192       2   21174   21186
       2   21174   21189       2   21171   21180       2   21168   21171       2
   21168   21174       2   21168   21177       2   21366   21372       2   21363
   21372       2   21357   21366       2   21354   21363       2   21336   21354
       2   21336   21357       2   21333   21354       2   21330   21342       2
   21324   21342       2   21321   21336       2   21318   21333       2   21309
   21330       2   21306   21324       2   21300   21318       2   21300   21321
       2   21297   21318       2   21294   21309       2   21288   21306       2
   21288   21309       2   21285   21300       2   21282   21294       2   21282
   21297       2   21279   21288       2   21276   21279       2   21276   21282
       2   21276   21285       2   21474   21480       2   21471   21480       2
   21465   21474       2   21462   21471       2   21444   21462       2   21444
   21465       2   21441   21462       2   21438   21450       2   21432   21450
       2   21429   21444       2   21426   21441       2   21417   21438       2
   21414   21432       2   21408   21426       2   21408   21429       2   21405
   21426       2   21402   21417       2   21396   21414       2   21396   21417
       2   21393   21408       2   21390   21402       2   21390   21405       2
   21387   21396       2   21384   21387       2   21384   21390       2   21384
   21393       2   21582   21588       2   21579   21588       2   21573   21582
       2   21570   21579       2   21552   21570       2   21552   21573       2
   21549   21570       2   21546   21558       2   21540   21558       2   21537
   21552       2   21534   21549       2   21525   21546       2   21522   21540
       2   21516   21534       2   21516   21537       2   21513   21534       2
   21510   21525       2   21504   21522       2   21504   21525       2   21501
   21516       2   21498   21510       2   21498   21513       2   21495   21504
       2   21492   21495       2   21492   21498       2   21492   21501       2
   21690   21696       2   21687   21696       2   21681   21690       2   21678
   21687       2   21660   21678       2   21660   21681       2   21657   21678
       2   21654   21666       2   21648   21666       2   21645   21660       2
   21642   21657       2   21633   21654       2   21630   21648       2   21624
   21642       2   21624   21645       2   21621   21642       2   21618   21633
       2   21612   21630       2   21612   21633       2   21609   21624       2
   21606   21618       2   21606   21621       2   21603   21612       2   21600
   21603       2   21600   21606       2   21600   21609       2   21798   21804
       2   21795   21804       2   21789   21798       2   21786   21795       2
   21768   21786       2   21768   21789       2   21765   21786       2   21762
   21774       2   21756   21774       2   21753   21768       2   21750   21765
       2   21741   21762       2   21738   21756       2   21732   21750       2
   21732   21753       2   21729   21750       2   21726   21741       2   21720
   21738       2   21720   21741       2   21717   21732       2   21714   21726
       2   21714   21729       2   21711   21720       2   21708   21711       2
   21708   21714       2   21708   21717       2   21906   21912       2   21903
   21912       2   21897   21906       2   21894   21903       2   21876   21894
       2   21876   21897       2   21873   21894       2   21870   21882       2
   21864   21882       2   21861   21876       2   21858   21873       2   21849
   21870       2   21846   21864       2   21840   21858       2   21840   21861
       2   21837   21858       2   21834   21849       2   21828   21846       2
   21828   21849       2   21825   21840       2   21822   21834       2   21822
   21837       2   21819   21828       2   21816   21819       2   21816   21822
       2   21816   21825       2   22014   22020       2   22011   22020       2
   22005   22014       2   22002   22011       2   21984   22002       2   21984
   22005       2   21981   22002       2   21978   21990       2   21972   21990
       2   21969   21984       2   21966   21981       2   21957   21978       2
   21954   21972       2   21948   21966       2   21948   21969       2   21945
   21966       2   21942   21957       2   21936   21954       2   21936   21957
       2   21933   21948       2   21930   21942       2   21930   21945       2
   21927   21936       2   21924   21927       2   21924   21930       2   21924
   21933       2   22122   22128       2   22119   22128       2   22113   22122
       2   22110   22119       2   22092   22110       2   22092   22113       2
   22089   22110       2   22086   22098       2   22080   22098       2   22077
   22092       2   22074   22089       2   22065   22086       2   22062   22080
       2   22056   22074       2   22056   22077       2   22053   22074       2
   22050   22065       2   22044   22062       2   22044   22065       2   22041
   22056       2   22038   22050       2   22038   22053       2   22035   22044
       2   22032   22035       2   22032   22038       2   22032   22041       2
   22230   22236       2   22227   22236       2   22221   22230       2   22218
   22227       2   22200   22218       2   22200   22221       2   22197   22218
       2   22194   22206       2   22188   22206       2   22185   22200       2
   22182   22197       2   22173   22194       2   22170   22188       2   22164
   22182       2   22164   22185       2   22161   22182       2   22158   22173
       2   22152   22170       2   22152   22173       2   22149   22164       2
   22146   22158       2   22146   22161       2   22143   22152       2   22140
   22143       2   22140   22146       2   22140   22149       2   22338   22344
       2   22335   22344       2   22329   22338       2   22326   22335       2
   22308   22326       2   22308   22329       2   22305   22326       2   22302
   22314       2   22296   22314       2   22293   22308       2   22290   22305
       2   22281   22302       2   22278   22296       2   22272   22290       2
   22272   22293       2   22269   22290       2   22266   22281       2   22260
   22278       2   22260   22281       2   22257   22272       2   22254   22266
       2   22254   22269       2   22251   22260       2   22248   22251       2
   22248   22254       2   22248   22257       2   22446   22452       2   22443
   22452       2   22437   22446       2   22434   22443       2   22416   22434
       2   22416   22437       2   22413   22434       2   22410   22422       2
   22404   22422       2   22401   22416       2   22398   22413       2   22389
   22410       2   22386   22404       2   22380   22398       2   22380   22401
       2   22377   22398       2   22374   22389       2   22368   22386       2
   22368   22389       2   22365   22380       2   22362   22374       2   22362
   22377       2   22359   22368       2   22356   22359       2   22356   22362
       2   22356   22365       2   22554   22560       2   22551   22560       2
   22545   22554       2   22542   22551       2   22524   22542       2   22524
   22545       2   22521   22542       2   22518   22530       2   22512   22530
       2   22509   22524       2   22506   22521       2   22497   22518       2
   22494   22512       2   22488   22506       2   22488   22509       2   22485
   22506       2   22482   22497       2   22476   22494       2   22476   22497
       2   22473   22488       2   22470   22482       2   22470   22485       2
   22467   22476       2   22464   22467       2   22464   22470       2   22464
   22473       2   22662   22668       2   22659   22668       2   22653   22662
       2   22650   22659       2   22632   22650       2   22632   22653       2
   22629   22650       2   22626   22638       2   22620   22638       2   22617
   22632       2   22614   22629       2   22605   22626       2   22602   22620
       2   22596   22614       2   22596   22617       2   22593   22614       2
   22590   22605       2   22584   22602       2   22584   22605       2   22581
   22596       2   22578   22590       2   22578   22593       2   22575   22584
       2   22572   22575       2   22572   22578       2   22572   22581       2
   22770   22776       2   22767   22776       2   22761   22770       2   22758
   22767       2   22740   22758       2   22740   22761       2   22737   22758
       2   22734   22746       2   22728   22746       2   22725   22740       2
   22722   22737       2   22713   22734       2   22710   22728       2   22704
   22722       2   22704   22725       2   22701   22722       2   22698   22713
       2   22692   22710       2   22692   22713       2   22689   22704       2
   22686   22698       2   22686   22701       2   22683   22692       2   22680
   22683       2   22680   22686       2   22680   22689       2   22878   22884
       2   22875   22884       2   22869   22878       2   22866   22875       2
   22848   22866       2   22848   22869       2   22845   22866       2   22842
   22854       2   22836   22854       2   22833   22848       2   22830   22845
       2   22821   22842       2   22818   22836       2   22812   22830       2
   22812   22833       2   22809   22830       2   22806   22821       2   22800
   22818       2   22800   22821       2   22797   22812       2   22794   22806
       2   22794   22809       2   22791   22800       2   22788   22791       2
   22788   22794       2   22788   22797       2   22986   22992       2   22983
   22992       2   22977   22986       2   22974   22983       2   22956   22974
       2   22956   22977       2   22953   22974       2   22950   22962       2
   22944   22962       2   22941   22956       2   22938   22953       2   22929
   22950       2   22926   22944       2   22920   22938       2   22920   22941
       2   22917   22938       2   22914   22929       2   22908   22926       2
   22908   22929       2   22905   22920       2   22902   22914       2   22902
   22917       2   22899   22908       2   22896   22899       2   22896   22902
       2   22896   22905       2   23094   23100       2   23091   23100       2
   23085   23094       2   23082   23091       2   23064   23082       2   23064
   23085       2   23061   23082       2   23058   23070       2   23052   23070
       2   23049   23064       2   23046   23061       2   23037   23058       2
   23034   23052       2   23028   23046       2   23028   23049       2   23025
   23046       2   23022   23037       2   23016   23034       2   23016   23037
       2   23013   23028       2   23010   23022       2   23010   23025       2
   23007   23016       2   23004   23007       2   23004   23010       2   23004
   23013       2   23202   23208       2   23199   23208       2   23193   23202
       2   23190   23199       2   23172   23190       2   23172   23193       2
   23169   23190       2   23166   23178       2   23160   23178       2   23157
   23172       2   23154   23169       2   23145   23166       2   23142   23160
       2   23136   23154       2   23136   23157       2   23133   23154       2
   23130   23145       2   23124   23142       2   23124   23145       2   23121
   23136       2   23118   23130       2   23118   23133       2   23115   23124
       2   23112   23115       2   23112   23118       2   23112   23121       2
   23310   23316       2   23307   23316       2   23301   23310       2   23298
   23307       2   23280   23298       2   23280   23301       2   23277   23298
       2   23274   23286       2   23268   23286       2   23265   23280       2
   23262   23277       2   23253   23274       2   23250   23268       2   23244
   23262       2   23244   23265       2   23241   23262       2   23238   23253
       2   23232   23250       2   23232   23253       2   23229   23244       2
   23226   23238       2   23226   23241       2   23223   23232       2   23220
   23223       2   23220   23226       2   23220   23229       2   23418   23424
       2   23415   23424       2   23409   23418       2   23406   23415       2
   23388   23406       2   23388   23409       2   23385   23406       2   23382
   23394       2   23376   23394       2   23373   23388       2   23370   23385
       2   23361   23382       2   23358   23376       2   23352   23370       2
   23352   23373       2   23349   23370       2   23346   23361       2   23340
   23358       2   23340   23361       2   23337   23352       2   23334   23346
       2   23334   23349       2   23331   23340       2   23328   23331       2
   23328   23334       2   23328   23337       2   23526   23532       2   23523
   23532       2   23517   23526       2   23514   23523       2   23496   23514
       2   23496   23517       2   23493   23514       2   23490   23502       2
   23484   23502       2   23481   23496       2   23478   23493       2   23469
   23490       2   23466   23484       2   23460   23478       2   23460   23481
       2   23457   23478       2   23454   23469       2   23448   23466       2
   23448   23469       2   23445   23460       2   23442   23454       2   23442
   23457       2   23439   23448       2   23436   23439       2   23436   23442
       2   23436   23445       2   23634   23640       2   23631   23640       2
   23625   23634       2   23622   23631       2   23604   23622       2   23604
   23625       2   23601   23622       2   23598   23610       2   23592   23610
       2   23589   23604       2   23586   23601       2   23577   23598       2
   23574   23592       2   23568   23586       2   23568   23589       2   23565
   23586       2   23562   23577       2   23556   23574       2   23556   23577
       2   23553   23568       2   23550   23562       2   23550   23565       2
   23547   23556       2   23544   23547       2   23544   23550       2   23544
   23553       2   23742   23748       2   23739   23748       2   23733   23742
       2   23730   23739       2   23712   23730       2   23712   23733       2
   23709   23730       2   23706   23718       2   23700   23718       2   23697
   23712       2   23694   23709       2   23685   23706       2   23682   23700
       2   23676   23694       2   23676   23697       2   23673   23694       2
   23670   23685       2   23664   23682       2   23664   23685       2   23661
   23676       2   23658   23670       2   23658   23673       2   23655   23664
       2   23652   23655       2   23652   23658       2   23652   23661       2
   23850   23856       2   23847   23856       2   23841   23850       2   23838
   23847       2   23820   23838       2   23820   23841       2   23817   23838
       2   23814   23826       2   23808   23826       2   23805   23820       2
   23802   23817       2   23793   23814       2   23790   23808       2   23784
   23802       2   23784   23805       2   23781   23802       2   23778   23793
       2   23772   23790       2   23772   23793       2   23769   23784       2
   23766   23778       2   23766   23781       2   23763   23772       2   23760
   23763       2   23760   23766       2   23760   23769       2   23958   23964
       2   23955   23964       2   23949   23958       2   23946   23955       2
   23928   23946       2   23928   23949       2   23925   23946       2   23922
   23934       2   23916   23934       2   23913   23928       2   23910   23925
       2   23901   23922       2   23898   23916       2   23892   23910       2
   23892   23913       2   23889   23910       2   23886   23901       2   23880
   23898       2   23880   23901       2   23877   23892       2   23874   23886
       2   23874   23889       2   23871   23880       2   23868   23871       2
   23868   23874       2   23868   23877       2   24066   24072       2   24063
   24072       2   24057   24066       2   24054   24063       2   24036   24054
       2   24036   24057       2   24033   24054       2   24030   24042       2
   24024   24042       2   24021   24036       2   24018   24033       2   24009
   24030       2   24006   24024       2   24000   24018       2   24000   24021
       2   23997   24018       2   23994   24009       2   23988   24006       2
   23988   24009       2   23985   24000       2   23982   23994       2   23982
   23997       2   23979   23988       2   23976   23979       2   23976   23982
       2   23976   23985       2   24174   24180       2   24171   24180       2
   24165   24174       2   24162   24171       2   24144   24162       2   24144
   24165       2   24141   24162       2   24138   24150       2   24132   24150
       2   24129   24144       2   24126   24141       2   24117   24138       2
   24114   24132       2   24108   24126       2   24108   24129       2   24105
   24126       2   24102   24117       2   24096   24114       2   24096   24117
       2   24093   24108       2   24090   24102       2   24090   24105       2
   24087   24096       2   24084   24087       2   24084   24090       2   24084
   24093       2   24282   24288       2   24279   24288       2   24273   24282
       2   24270   24279       2   24252   24270       2   24252   24273       2
   24249   24270       2   24246   24258       2   24240   24258       2   24237
   24252       2   24234   24249       2   24225   24246       2   24222   24240
       2   24216   24234       2   24216   24237       2   24213   24234       2
   24210   24225       2   24204   24222       2   24204   24225       2   24201
   24216       2   24198   24210       2   24198   24213       2   24195   24204
       2   24192   24195       2   24192   24198       2   24192   24201       2
   24390   24396       2   24387   24396       2   24381   24390       2   24378
   24387       2   24360   24378       2   24360   24381       2   24357   24378
       2   24354   24366       2   24348   24366       2   24345   24360       2
   24342   24357       2   24333   24354       2   24330   24348       2   24324
   24342       2   24324   24345       2   24321   24342       2   24318   24333
       2   24312   24330       2   24312   24333       2   24309   24324       2
   24306   24318       2   24306   24321       2   24303   24312       2   24300
   24303       2   24300   24306       2   24300   24309       2   24498   24504
       2   24495   24504       2   24489   24498       2   24486   24495       2
   24468   24486       2   24468   24489       2   24465   24486       2   24462
   24474       2   24456   24474       2   24453   24468       2   24450   24465
       2   24441   24462       2   24438   24456       2   24432   24450       2
   24432   24453       2   24429   24450       2   24426   24441       2   24420
   24438       2   24420   24441       2   24417   24432       2   24414   24426
       2   24414   24429       2   24411   24420       2   24408   24411       2
   24408   24414       2   24408   24417       2   24606   24612       2   24603
   24612       2   24597   24606       2   24594   24603       2   24576   24594
       2   24576   24597       2   24573   24594       2   24570   24582       2
   24564   24582       2   24561   24576       2   24558   24573       2   24549
   24570       2   24546   24564       2   24540   24558       2   24540   24561
       2   24537   24558       2   24534   24549       2   24528   24546       2
   24528   24549       2   24525   24540       2   24522   24534       2   24522
   24537       2   24519   24528       2   24516   24519       2   24516   24522
       2   24516   24525       2   24714   24720       2   24711   24720       2
   24705   24714       2   24702   24711       2   24684   24702       2   24684
   24705       2   24681   24702       2   24678   24690       2   24672   24690
       2   24669   24684       2   24666   24681       2   24657   24678       2
   24654   24672       2   24648   24666       2   24648   24669       2   24645
   24666       2   24642   24657       2   24636   24654       2   24636   24657
       2   24633   24648       2   24630   24642       2   24630   24645       2
   24627   24636       2   24624   24627       2   24624   24630       2   24624
   24633       2   24822   24828       2   24819   24828       2   24813   24822
       2   24810   24819       2   24792   24810       2   24792   24813       2
   24789   24810       2   24786   24798       2   24780   24798       2   24777
   24792       2   24774   24789       2   24765   24786       2   24762   24780
       2   24756   24774       2   24756   24777       2   24753   24774       2
   24750   24765       2   24744   24762       2   24744   24765       2   24741
   24756       2   24738   24750       2   24738   24753       2   24735   24744
       2   24732   24735       2   24732   24738       2   24732   24741       2
   24930   24936       2   24927   24936       2   24921   24930       2   24918
   24927       2   24900   24918       2   24900   24921       2   24897   24918
       2   24894   24906       2   24888   24906       2   24885   24900       2
   24882   24897       2   24873   24894       2   24870   24888       2   24864
   24882       2   24864   24885       2   24861   24882       2   24858   24873
       2   24852   24870       2   24852   24873       2   24849   24864       2
   24846   24858       2   24846   24861       2   24843   24852       2   24840
   24843       2   24840   24846       2   24840   24849       2   25038   25044
       2   25035   25044       2   25029   25038       2   25026   25035       2
   25008   25026       2   25008   25029       2   25005   25026       2   25002
   25014       2   24996   25014       2   24993   25008       2   24990   25005
       2   24981   25002       2   24978   24996       2   24972   24990       2
   24972   24993       2   24969   24990       2   24966   24981       2   24960
   24978       2   24960   24981       2   24957   24972       2   24954   24966
       2   24954   24969       2   24951   24960       2   24948   24951       2
   24948   24954       2   24948   24957       2   25146   25152       2   25143
   25152       2   25137   25146       2   25134   25143       2   25116   25134
       2   25116   25137       2   25113   25134       2   25110   25122       2
   25104   25122       2   25101   25116       2   25098   25113       2   25089
   25110       2   25086   25104       2   25080   25098       2   25080   25101
       2   25077   25098       2   25074   25089       2   25068   25086       2
   25068   25089       2   25065   25080       2   25062   25074       2   25062
   25077       2   25059   25068       2   25056   25059       2   25056   25062
       2   25056   25065       2   25254   25260       2   25251   25260       2
   25245   25254       2   25242   25251       2   25224   25242       2   25224
   25245       2   25221   25242       2   25218   25230       2   25212   25230
       2   25209   25224       2   25206   25221       2   25197   25218       2
   25194   25212       2   25188   25206       2   25188   25209       2   25185
   25206       2   25182   25197       2   25176   25194       2   25176   25197
       2   25173   25188       2   25170   25182       2   25170   25185       2
   25167   25176       2   25164   25167       2   25164   25170       2   25164
   25173       2   25362   25368       2   25359   25368       2   25353   25362
       2   25350   25359       2   25332   25350       2   25332   25353       2
   25329   25350       2   25326   25338       2   25320   25338       2   25317
   25332       2   25314   25329       2   25305   25326       2   25302   25320
       2   25296   25314       2   25296   25317       2   25293   25314       2
   25290   25305       2   25284   25302       2   25284   25305       2   25281
   25296       2   25278   25290       2   25278   25293       2   25275   25284
       2   25272   25275       2   25272   25278       2   25272   25281       2
   25470   25476       2   25467   25476       2   25461   25470       2   25458
   25467       2   25440   25458       2   25440   25461       2   25437   25458
       2   25434   25446       2   25428   25446       2   25425   25440       2
   25422   25437       2   25413   25434       2   25410   25428       2   25404
   25422       2   25404   25425       2   25401   25422       2   25398   25413
       2   25392   25410       2   25392   25413       2   25389   25404       2
   25386   25398       2   25386   25401       2   25383   25392       2   25380
   25383       2   25380   25386       2   25380   25389       2   25578   25584
       2   25575   25584       2   25569   25578       2   25566   25575       2
   25548   25566       2   25548   25569       2   25545   25566       2   25542
   25554       2   25536   25554       2   25533   25548       2   25530   25545
       2   25521   25542       2   25518   25536       2   25512   25530       2
   25512   25533       2   25509   25530       2   25506   25521       2   25500
   25518       2   25500   25521       2   25497   25512       2   25494   25506
       2   25494   25509       2   25491   25500       2   25488   25491       2
   25488   25494       2   25488   25497       2   25686   25692       2   25683
   25692       2   25677   25686       2   25674   25683       2   25656   25674
       2   25656   25677       2   25653   25674       2   25650   25662       2
   25644   25662       2   25641   25656       2   25638   25653       2   25629
   25650       2   25626   25644       2   25620   25638       2   25620   25641
       2   25617   25638       2   25614   25629       2   25608   25626       2
   25608   25629       2   25605   25620       2   25602   25614       2   25602
   25617       2   25599   25608       2   25596   25599       2   25596   25602
       2   25596   25605       2   25794   25800       2   25791   25800       2
   25785   25794       2   25782   25791       2   25764   25782       2   25764
   25785       2   25761   25782       2   25758   25770       2   25752   25770
       2   25749   25764       2   25746   25761       2   25737   25758       2
   25734   25752       2   25728   25746       2   25728   25749       2   25725
   25746       2   25722   25737       2   25716   25734       2   25716   25737
       2   25713   25728       2   25710   25722       2   25710   25725       2
   25707   25716       2   25704   25707       2   25704   25710       2   25704
   25713       2   25902   25908       2   25899   25908       2   25893   25902
       2   25890   25899       2   25872   25890       2   25872   25893       2
   25869   25890       2   25866   25878       2   25860   25878       2   25857
   25872       2   25854   25869       2   25845   25866       2   25842   25860
       2   25836   25854       2   25836   25857       2   25833   25854       2
   25830   25845       2   25824   25842       2   25824   25845       2   25821
   25836       2   25818   25830       2   25818   25833       2   25815   25824
       2   25812   25815       2   25812   25818       2   25812   25821       2
   26010   26016       2   26007   26016       2   26001   26010       2   25998
   26007       2   25980   25998       2   25980   26001       2   25977   25998
       2   25974   25986       2   25968   25986       2   25965   25980       2
   25962   25977       2   25953   25974       2   25950   25968       2   25944
   25962       2   25944   25965       2   25941   25962       2   25938   25953
       2   25932   25950       2   25932   25953       2   25929   25944       2
   25926   25938       2   25926   25941       2   25923   25932       2   25920
   25923       2   25920   25926       2   25920   25929       2   26118   26124
       2   26115   26124       2   26109   26118       2   26106   26115       2
   26088   26106       2   26088   26109       2   26085   26106       2   26082
   26094       2   26076   26094       2   26073   26088       2   26070   26085
       2   26061   26082       2   26058   26076       2   26052   26070       2
   26052   26073       2   26049   26070       2   26046   26061       2   26040
   26058       2   26040   26061       2   26037   26052       2   26034   26046
       2   26034   26049       2   26031   26040       2   26028   26031       2
   26028   26034       2   26028   26037       2   26226   26232       2   26223
   26232       2   26217   26226       2   26214   26223       2   26196   26214
       2   26196   26217       2   26193   26214       2   26190   26202       2
   26184   26202       2   26181   26196       2   26178   26193       2   26169
   26190       2   26166   26184       2   26160   26178       2   26160   26181
       2   26157   26178       2   26154   26169       2   26148   26166       2
   26148   26169       2   26145   26160       2   26142   26154       2   26142
   26157       2   26139   26148       2   26136   26139       2   26136   26142
       2   26136   26145       2   26334   26340       2   26331   26340       2
   26325   26334       2   26322   26331       2   26304   26322       2   26304
   26325       2   26301   26322       2   26298   26310       2   26292   26310
       2   26289   26304       2   26286   26301       2   26277   26298       2
   26274   26292       2   26268   26286       2   26268   26289       2   26265
   26286       2   26262   26277       2   26256   26274       2   26256   26277
       2   26253   26268       2   26250   26262       2   26250   26265       2
   26247   26256       2   26244   26247       2   26244   26250       2   26244
   26253       2   26442   26448       2   26439   26448       2   26433   26442
       2   26430   26439       2   26412   26430       2   26412   26433       2
   26409   26430       2   26406   26418       2   26400   26418       2   26397
   26412       2   26394   26409       2   26385   26406       2   26382   26400
       2   26376   26394       2   26376   26397       2   26373   26394       2
   26370   26385       2   26364   26382       2   26364   26385       2   26361
   26376       2   26358   26370       2   26358   26373       2   26355   26364
       2   26352   26355       2   26352   26358       2   26352   26361       2
   26550   26556       2   26547   26556       2   26541   26550       2   26538
   26547       2   26520   26538       2   26520   26541       2   26517   26538
       2   26514   26526       2   26508   26526       2   26505   26520       2
   26502   26517       2   26493   26514       2   26490   26508       2   26484
   26502       2   26484   26505       2   26481   26502       2   26478   26493
       2   26472   26490       2   26472   26493       2   26469   26484       2
   26466   26478       2   26466   26481       2   26463   26472       2   26460
   26463       2   26460   26466       2   26460   26469       2   26658   26664
       2   26655   26664       2   26649   26658       2   26646   26655       2
   26628   26646       2   26628   26649       2   26625   26646       2   26622
   26634       2   26616   26634       2   26613   26628       2   26610   26625
       2   26601   26622       2   26598   26616       2   26592   26610       2
   26592   26613       2   26589   26610       2   26586   26601       2   26580
   26598       2   26580   26601       2   26577   26592       2   26574   26586
       2   26574   26589       2   26571   26580       2   26568   26571       2
   26568   26574       2   26568   26577       2   26766   26772       2   26763
   26772       2   26757   26766       2   26754   26763       2   26736   26754
       2   26736   26757       2   26733   26754       2   26730   26742       2
   26724   26742       2   26721   26736       2   26718   26733       2   26709
   26730       2   26706   26724       2   26700   26718       2   26700   26721
       2   26697   26718       2   26694   26709       2   26688   26706       2
   26688   26709       2   26685   26700       2   26682   26694       2   26682
   26697       2   26679   26688       2   26676   26679       2   26676   26682
       2   26676   26685       2   26874   26880       2   26871   26880       2
   26865   26874       2   26862   26871       2   26844   26862       2   26844
   26865       2   26841   26862       2   26838   26850       2   26832   26850
       2   26829   26844       2   26826   26841       2   26817   26838       2
   26814   26832       2   26808   26826       2   26808   26829       2   26805
   26826       2   26802   26817       2   26796   26814       2   26796   26817
       2   26793   26808       2   26790   26802       2   26790   26805       2
   26787   26796       2   26784   26787       2   26784   26790       2   26784
   26793       2   26982   26988       2   26979   26988       2   26973   26982
       2   26970   26979       2   26952   26970       2   26952   26973       2
   26949   26970       2   26946   26958       2   26940   26958       2   26937
   26952       2   26934   26949       2   26925   26946       2   26922   26940
       2   26916   26934       2   26916   26937       2   26913   26934       2
   26910   26925       2   26904   26922       2   26904   26925       2   26901
   26916       2   26898   26910       2   26898   26913       2   26895   26904
       2   26892   26895       2   26892   26898       2   26892   26901       2
%FLAG ANGLES_INC_HYDROGEN                                                       
%FORMAT(10I8)                                                                   
      96      87      99       1      96      90     102       1      90      81
      93       1      90      96     105       1      87      96     105       1
      81      90     102       1      78      87      99       1      75      57
      78       1      66      48      69       1      66      54      72       1
      60      45      63       1      60      81      93       1      54      66
      84       1      48      30      51       1      48      66      84       1
      42      57      75       1      39      21      42       1      33      18
      36       1      33      54      72       1      30      48      69       1
      24       9      27       1      24      45      63       1      12       3
      15       1      12      30      51       1       6      18      36       1
       6      21      39       1       0       3      15       1       0       9
      27       1     204     195     207       1     204     198     210       1
     198     189     201       1     198     204     213       1     195     204
     213       1     189     198     210       1     186     195     207       1
     183     165     186       1     174     156     177       1     174     162
     180       1     168     153     171       1     168     189     201       1
     162     174     192       1     156     138     159       1     156     174
     192       1     150     165     183       1     147     129     150       1
     141     126     144       1     141     162     180       1     138     156
     177       1     132     117     135       1     132     153     171       1
     120     111     123       1     120     138     159       1     114     126
     144       1     114     129     147       1     108     111     123       1
     108     117     135       1     312     303     315       1     312     306
     318       1     306     297     309       1     306     312     321       1
     303     312     321       1     297     306     318       1     294     303
     315       1     291     273     294       1     282     264     285       1
     282     270     288       1     276     261     279       1     276     297
     309       1     270     282     300       1     264     246     267       1
     264     282     300       1     258     273     291       1     255     237
     258       1     249     234     252       1     249     270     288       1
     246     264     285       1     240     225     243       1     240     261
     279       1     228     219     231       1     228     246     267       1
     222     234     252       1     222     237     255       1     216     219
     231       1     216     225     243       1     420     411     423       1
     420     414     426       1     414     405     417       1     414     420
     429       1     411     420     429       1     405     414     426       1
     402     411     423       1     399     381     402       1     390     372
     393       1     390     378     396       1     384     369     387       1
     384     405     417       1     378     390     408       1     372     354
     375       1     372     390     408       1     366     381     399       1
     363     345     366       1     357     342     360       1     357     378
     396       1     354     372     393       1     348     333     351       1
     348     369     387       1     336     327     339       1     336     354
     375       1     330     342     360       1     330     345     363       1
     324     327     339       1     324     333     351       1     528     519
     531       1     528     522     534       1     522     513     525       1
     522     528     537       1     519     528     537       1     513     522
     534       1     510     519     531       1     507     489     510       1
     498     480     501       1     498     486     504       1     492     477
     495       1     492     513     525       1     486     498     516       1
     480     462     483       1     480     498     516       1     474     489
     507       1     471     453     474       1     465     450     468       1
     465     486     504       1     462     480     501       1     456     441
     459       1     456     477     495       1     444     435     447       1
     444     462     483       1     438     450     468       1     438     453
     471       1     432     435     447       1     432     441     459       1
     636     627     639       1     636     630     642       1     630     621
     633       1     630     636     645       1     627     636     645       1
     621     630     642       1     618     627     639       1     615     597
     618       1     606     588     609       1     606     594     612       1
     600     585     603       1     600     621     633       1     594     606
     624       1     588     570     591       1     588     606     624       1
     582     597     615       1     579     561     582       1     573     558
     576       1     573     594     612       1     570     588     609       1
     564     549     567       1     564     585     603       1     552     543
     555       1     552     570     591       1     546     558     576       1
     546     561     579       1     540     543     555       1     540     549
     567       1     744     735     747       1     744     738     750       1
     738     729     741       1     738     744     753       1     735     744
     753       1     729     738     750       1     726     735     747       1
     723     705     726       1     714     696     717       1     714     702
     720       1     708     693     711       1     708     729     741       1
     702     714     732       1     696     678     699       1     696     714
     732       1     690     705     723       1     687     669     690       1
     681     666     684       1     681     702     720       1     678     696
     717       1     672     657     675       1     672     693     711       1
     660     651     663       1     660     678     699       1     654     666
     684       1     654     669     687       1     648     651     663       1
     648     657     675       1     852     843     855       1     852     846
     858       1     846     837     849       1     846     852     861       1
     843     852     861       1     837     846     858       1     834     843
     855       1     831     813     834       1     822     804     825       1
     822     810     828       1     816     801     819       1     816     837
     849       1     810     822     840       1     804     786     807       1
     804     822     840       1     798     813     831       1     795     777
     798       1     789     774     792       1     789     810     828       1
     786     804     825       1     780     765     783       1     780     801
     819       1     768     759     771       1     768     786     807       1
     762     774     792       1     762     777     795       1     756     759
     771       1     756     765     783       1     960     951     963       1
     960     954     966       1     954     945     957       1     954     960
     969       1     951     960     969       1     945     954     966       1
     942     951     963       1     939     921     942       1     930     912
     933       1     930     918     936       1     924     909     927       1
     924     945     957       1     918     930     948       1     912     894
     915       1     912     930     948       1     906     921     939       1
     903     885     906       1     897     882     900       1     897     918
     936       1     894     912     933       1     888     873     891       1
     888     909     927       1     876     867     879       1     876     894
     915       1     870     882     900       1     870     885     903       1
     864     867     879       1     864     873     891       1    1068    1059
    1071       1    1068    1062    1074       1    1062    1053    1065       1
    1062    1068    1077       1    1059    1068    1077       1    1053    1062
    1074       1    1050    1059    1071       1    1047    1029    1050       1
    1038    1020    1041       1    1038    1026    1044       1    1032    1017
    1035       1    1032    1053    1065       1    1026    1038    1056       1
    1020    1002    1023       1    1020    1038    1056       1    1014    1029
    1047       1    1011     993    1014       1    1005     990    1008       1
    1005    1026    1044       1    1002    1020    1041       1     996     981
     999       1     996    1017    1035       1     984     975     987       1
     984    1002    1023       1     978     990    1008       1     978     993
    1011       1     972     975     987       1     972     981     999       1
    1176    1167    1179       1    1176    1170    1182       1    1170    1161
    1173       1    1170    1176    1185       1    1167    1176    1185       1
    1161    1170    1182       1    1158    1167    1179       1    1155    1137
    1158       1    1146    1128    1149       1    1146    1134    1152       1
    1140    1125    1143       1    1140    1161    1173       1    1134    1146
    1164       1    1128    1110    1131       1    1128    1146    1164       1
    1122    1137    1155       1    1119    1101    1122       1    1113    1098
    1116       1    1113    1134    1152       1    1110    1128    1149       1
    1104    1089    1107       1    1104    1125    1143       1    1092    1083
    1095       1    1092    1110    1131       1    1086    1098    1116       1
    1086    1101    1119       1    1080    1083    1095       1    1080    1089
    1107       1    1284    1275    1287       1    1284    1278    1290       1
    1278    1269    1281       1    1278    1284    1293       1    1275    1284
    1293       1    1269    1278    1290       1    1266    1275    1287       1
    1263    1245    1266       1    1254    1236    1257       1    1254    1242
    1260       1    1248    1233    1251       1    1248    1269    1281       1
    1242    1254    1272       1    1236    1218    1239       1    1236    1254
    1272       1    1230    1245    1263       1    1227    1209    1230       1
    1221    1206    1224       1    1221    1242    1260       1    1218    1236
    1257       1    1212    1197    1215       1    1212    1233    1251       1
    1200    1191    1203       1    1200    1218    1239       1    1194    1206
    1224       1    1194    1209    1227       1    1188    1191    1203       1
    1188    1197    1215       1    1392    1383    1395       1    1392    1386
    1398       1    1386    1377    1389       1    1386    1392    1401       1
    1383    1392    1401       1    1377    1386    1398       1    1374    1383
    1395       1    1371    1353    1374       1    1362    1344    1365       1
    1362    1350    1368       1    1356    1341    1359       1    1356    1377
    1389       1    1350    1362    1380       1    1344    1326    1347       1
    1344    1362    1380       1    1338    1353    1371       1    1335    1317
    1338       1    1329    1314    1332       1    1329    1350    1368       1
    1326    1344    1365       1    1320    1305    1323       1    1320    1341
    1359       1    1308    1299    1311       1    1308    1326    1347       1
    1302    1314    1332       1    1302    1317    1335       1    1296    1299
    1311       1    1296    1305    1323       1    1500    1491    1503       1
    1500    1494    1506       1    1494    1485    1497       1    1494    1500
    1509       1    1491    1500    1509       1    1485    1494    1506       1
    1482    1491    1503       1    1479    1461    1482       1    1470    1452
    1473       1    1470    1458    1476       1    1464    1449    1467       1
    1464    1485    1497       1    1458    1470    1488       1    1452    1434
    1455       1    1452    1470    1488       1    1446    1461    1479       1
    1443    1425    1446       1    1437    1422    1440       1    1437    1458
    1476       1    1434    1452    1473       1    1428    1413    1431       1
    1428    1449    1467       1    1416    1407    1419       1    1416    1434
    1455       1    1410    1422    1440       1    1410    1425    1443       1
    1404    1407    1419       1    1404    1413    1431       1    1608    1599
    1611       1    1608    1602    1614       1    1602    1593    1605       1
    1602    1608    1617       1    1599    1608    1617       1    1593    1602
    1614       1    1590    1599    1611       1    1587    1569    1590       1
    1578    1560    1581       1    1578    1566    1584       1    1572    1557
    1575       1    1572    1593    1605       1    1566    1578    1596       1
    1560    1542    1563       1    1560    1578    1596       1    1554    1569
    1587       1    1551    1533    1554       1    1545    1530    1548       1
    1545    1566    1584       1    1542    1560    1581       1    1536    1521
    1539       1    1536    1557    1575       1    1524    1515    1527       1
    1524    1542    1563       1    1518    1530    1548       1    1518    1533
    1551       1    1512    1515    1527       1    1512    1521    1539       1
    1716    1707    1719       1    1716    1710    1722       1    1710    1701
    1713       1    1710    1716    1725       1    1707    1716    1725       1
    1701    1710    1722       1    1698    1707    1719       1    1695    1677
    1698       1    1686    1668    1689       1    1686    1674    1692       1
    1680    1665    1683       1    1680    1701    1713       1    1674    1686
    1704       1    1668    1650    1671       1    1668    1686    1704       1
    1662    1677    1695       1    1659    1641    1662       1    1653    1638
    1656       1    1653    1674    1692       1    1650    1668    1689       1
    1644    1629    1647       1    1644    1665    1683       1    1632    1623
    1635       1    1632    1650    1671       1    1626    1638    1656       1
    1626    1641    1659       1    1620    1623    1635       1    1620    1629
    1647       1    1824    1815    1827       1    1824    1818    1830       1
    1818    1809    1821       1    1818    1824    1833       1    1815    1824
    1833       1    1809    1818    1830       1    1806    1815    1827       1
    1803    1785    1806       1    1794    1776    1797       1    1794    1782
    1800       1    1788    1773    1791       1    1788    1809    1821       1
    1782    1794    1812       1    1776    1758    1779       1    1776    1794
    1812       1    1770    1785    1803       1    1767    1749    1770       1
    1761    1746    1764       1    1761    1782    1800       1    1758    1776
    1797       1    1752    1737    1755       1    1752    1773    1791       1
    1740    1731    1743       1    1740    1758    1779       1    1734    1746
    1764       1    1734    1749    1767       1    1728    1731    1743       1
    1728    1737    1755       1    1932    1923    1935       1    1932    1926
    1938       1    1926    1917    1929       1    1926    1932    1941       1
    1923    1932    1941       1    1917    1926    1938       1    1914    1923
    1935       1    1911    1893    1914       1    1902    1884    1905       1
    1902    1890    1908       1    1896    1881    1899       1    1896    1917
    1929       1    1890    1902    1920       1    1884    1866    1887       1
    1884    1902    1920       1    1878    1893    1911       1    1875    1857
    1878       1    1869    1854    1872       1    1869    1890    1908       1
    1866    1884    1905       1    1860    1845    1863       1    1860    1881
    1899       1    1848    1839    1851       1    1848    1866    1887       1
    1842    1854    1872       1    1842    1857    1875       1    1836    1839
    1851       1    1836    1845    1863       1    2040    2031    2043       1
    2040    2034    2046       1    2034    2025    2037       1    2034    2040
    2049       1    2031    2040    2049       1    2025    2034    2046       1
    2022    2031    2043       1    2019    2001    2022       1    2010    1992
    2013       1    2010    1998    2016       1    2004    1989    2007       1
    2004    2025    2037       1    1998    2010    2028       1    1992    1974
    1995       1    1992    2010    2028       1    1986    2001    2019       1
    1983    1965    1986       1    1977    1962    1980       1    1977    1998
    2016       1    1974    1992    2013       1    1968    1953    1971       1
    1968    1989    2007       1    1956    1947    1959       1    1956    1974
    1995       1    1950    1962    1980       1    1950    1965    1983       1
    1944    1947    1959       1    1944    1953    1971       1    2148    2139
    2151       1    2148    2142    2154       1    2142    2133    2145       1
    2142    2148    2157       1    2139    2148    2157       1    2133    2142
    2154       1    2130    2139    2151       1    2127    2109    2130       1
    2118    2100    2121       1    2118    2106    2124       1    2112    2097
    2115       1    2112    2133    2145       1    2106    2118    2136       1
    2100    2082    2103       1    2100    2118    2136       1    2094    2109
    2127       1    2091    2073    2094       1    2085    2070    2088       1
    2085    2106    2124       1    2082    2100    2121       1    2076    2061
    2079       1    2076    2097    2115       1    2064    2055    2067       1
    2064    2082    2103       1    2058    2070    2088       1    2058    2073
    2091       1    2052    2055    2067       1    2052    2061    2079       1
    2256    2247    2259       1    2256    2250    2262       1    2250    2241
    2253       1    2250    2256    2265       1    2247    2256    2265       1
    2241    2250    2262       1    2238    2247    2259       1    2235    2217
    2238       1    2226    2208    2229       1    2226    2214    2232       1
    2220    2205    2223       1    2220    2241    2253       1    2214    2226
    2244       1    2208    2190    2211       1    2208    2226    2244       1
    2202    2217    2235       1    2199    2181    2202       1    2193    2178
    2196       1    2193    2214    2232       1    2190    2208    2229       1
    2184    2169    2187       1    2184    2205    2223       1    2172    2163
    2175       1    2172    2190    2211       1    2166    2178    2196       1
    2166    2181    2199       1    2160    2163    2175       1    2160    2169
    2187       1    2364    2355    2367       1    2364    2358    2370       1
    2358    2349    2361       1    2358    2364    2373       1    2355    2364
    2373       1    2349    2358    2370       1    2346    2355    2367       1
    2343    2325    2346       1    2334    2316    2337       1    2334    2322
    2340       1    2328    2313    2331       1    2328    2349    2361       1
    2322    2334    2352       1    2316    2298    2319       1    2316    2334
    2352       1    2310    2325    2343       1    2307    2289    2310       1
    2301    2286    2304       1    2301    2322    2340       1    2298    2316
    2337       1    2292    2277    2295       1    2292    2313    2331       1
    2280    2271    2283       1    2280    2298    2319       1    2274    2286
    2304       1    2274    2289    2307       1    2268    2271    2283       1
    2268    2277    2295       1    2472    2463    2475       1    2472    2466
    2478       1    2466    2457    2469       1    2466    2472    2481       1
    2463    2472    2481       1    2457    2466    2478       1    2454    2463
    2475       1    2451    2433    2454       1    2442    2424    2445       1
    2442    2430    2448       1    2436    2421    2439       1    2436    2457
    2469       1    2430    2442    2460       1    2424    2406    2427       1
    2424    2442    2460       1    2418    2433    2451       1    2415    2397
    2418       1    2409    2394    2412       1    2409    2430    2448       1
    2406    2424    2445       1    2400    2385    2403       1    2400    2421
    2439       1    2388    2379    2391       1    2388    2406    2427       1
    2382    2394    2412       1    2382    2397    2415       1    2376    2379
    2391       1    2376    2385    2403       1    2580    2571    2583       1
    2580    2574    2586       1    2574    2565    2577       1    2574    2580
    2589       1    2571    2580    2589       1    2565    2574    2586       1
    2562    2571    2583       1    2559    2541    2562       1    2550    2532
    2553       1    2550    2538    2556       1    2544    2529    2547       1
    2544    2565    2577       1    2538    2550    2568       1    2532    2514
    2535       1    2532    2550    2568       1    2526    2541    2559       1
    2523    2505    2526       1    2517    2502    2520       1    2517    2538
    2556       1    2514    2532    2553       1    2508    2493    2511       1
    2508    2529    2547       1    2496    2487    2499       1    2496    2514
    2535       1    2490    2502    2520       1    2490    2505    2523       1
    2484    2487    2499       1    2484    2493    2511       1    2688    2679
    2691       1    2688    2682    2694       1    2682    2673    2685       1
    2682    2688    2697       1    2679    2688    2697       1    2673    2682
    2694       1    2670    2679    2691       1    2667    2649    2670       1
    2658    2640    2661       1    2658    2646    2664       1    2652    2637
    2655       1    2652    2673    2685       1    2646    2658    2676       1
    2640    2622    2643       1    2640    2658    2676       1    2634    2649
    2667       1    2631    2613    2634       1    2625    2610    2628       1
    2625    2646    2664       1    2622    2640    2661       1    2616    2601
    2619       1    2616    2637    2655       1    2604    2595    2607       1
    2604    2622    2643       1    2598    2610    2628       1    2598    2613
    2631       1    2592    2595    2607       1    2592    2601    2619       1
    2796    2787    2799       1    2796    2790    2802       1    2790    2781
    2793       1    2790    2796    2805       1    2787    2796    2805       1
    2781    2790    2802       1    2778    2787    2799       1    2775    2757
    2778       1    2766    2748    2769       1    2766    2754    2772       1
    2760    2745    2763       1    2760    2781    2793       1    2754    2766
    2784       1    2748    2730    2751       1    2748    2766    2784       1
    2742    2757    2775       1    2739    2721    2742       1    2733    2718
    2736       1    2733    2754    2772       1    2730    2748    2769       1
    2724    2709    2727       1    2724    2745    2763       1    2712    2703
    2715       1    2712    2730    2751       1    2706    2718    2736       1
    2706    2721    2739       1    2700    2703    2715       1    2700    2709
    2727       1    2904    2895    2907       1    2904    2898    2910       1
    2898    2889    2901       1    2898    2904    2913       1    2895    2904
    2913       1    2889    2898    2910       1    2886    2895    2907       1
    2883    2865    2886       1    2874    2856    2877       1    2874    2862
    2880       1    2868    2853    2871       1    2868    2889    2901       1
    2862    2874    2892       1    2856    2838    2859       1    2856    2874
    2892       1    2850    2865    2883       1    2847    2829    2850       1
    2841    2826    2844       1    2841    2862    2880       1    2838    2856
    2877       1    2832    2817    2835       1    2832    2853    2871       1
    2820    2811    2823       1    2820    2838    2859       1    2814    2826
    2844       1    2814    2829    2847       1    2808    2811    2823       1
    2808    2817    2835       1    3012    3003    3015       1    3012    3006
    3018       1    3006    2997    3009       1    3006    3012    3021       1
    3003    3012    3021       1    2997    3006    3018       1    2994    3003
    3015       1    2991    2973    2994       1    2982    2964    2985       1
    2982    2970    2988       1    2976    2961    2979       1    2976    2997
    3009       1    2970    2982    3000       1    2964    2946    2967       1
    2964    2982    3000       1    2958    2973    2991       1    2955    2937
    2958       1    2949    2934    2952       1    2949    2970    2988       1
    2946    2964    2985       1    2940    2925    2943       1    2940    2961
    2979       1    2928    2919    2931       1    2928    2946    2967       1
    2922    2934    2952       1    2922    2937    2955       1    2916    2919
    2931       1    2916    2925    2943       1    3120    3111    3123       1
    3120    3114    3126       1    3114    3105    3117       1    3114    3120
    3129       1    3111    3120    3129       1    3105    3114    3126       1
    3102    3111    3123       1    3099    3081    3102       1    3090    3072
    3093       1    3090    3078    3096       1    3084    3069    3087       1
    3084    3105    3117       1    3078    3090    3108       1    3072    3054
    3075       1    3072    3090    3108       1    3066    3081    3099       1
    3063    3045    3066       1    3057    3042    3060       1    3057    3078
    3096       1    3054    3072    3093       1    3048    3033    3051       1
    3048    3069    3087       1    3036    3027    3039       1    3036    3054
    3075       1    3030    3042    3060       1    3030    3045    3063       1
    3024    3027    3039       1    3024    3033    3051       1    3228    3219
    3231       1    3228    3222    3234       1    3222    3213    3225       1
    3222    3228    3237       1    3219    3228    3237       1    3213    3222
    3234       1    3210    3219    3231       1    3207    3189    3210       1
    3198    3180    3201       1    3198    3186    3204       1    3192    3177
    3195       1    3192    3213    3225       1    3186    3198    3216       1
    3180    3162    3183       1    3180    3198    3216       1    3174    3189
    3207       1    3171    3153    3174       1    3165    3150    3168       1
    3165    3186    3204       1    3162    3180    3201       1    3156    3141
    3159       1    3156    3177    3195       1    3144    3135    3147       1
    3144    3162    3183       1    3138    3150    3168       1    3138    3153
    3171       1    3132    3135    3147       1    3132    3141    3159       1
    3336    3327    3339       1    3336    3330    3342       1    3330    3321
    3333       1    3330    3336    3345       1    3327    3336    3345       1
    3321    3330    3342       1    3318    3327    3339       1    3315    3297
    3318       1    3306    3288    3309       1    3306    3294    3312       1
    3300    3285    3303       1    3300    3321    3333       1    3294    3306
    3324       1    3288    3270    3291       1    3288    3306    3324       1
    3282    3297    3315       1    3279    3261    3282       1    3273    3258
    3276       1    3273    3294    3312       1    3270    3288    3309       1
    3264    3249    3267       1    3264    3285    3303       1    3252    3243
    3255       1    3252    3270    3291       1    3246    3258    3276       1
    3246    3261    3279       1    3240    3243    3255       1    3240    3249
    3267       1    3444    3435    3447       1    3444    3438    3450       1
    3438    3429    3441       1    3438    3444    3453       1    3435    3444
    3453       1    3429    3438    3450       1    3426    3435    3447       1
    3423    3405    3426       1    3414    3396    3417       1    3414    3402
    3420       1    3408    3393    3411       1    3408    3429    3441       1
    3402    3414    3432       1    3396    3378    3399       1    3396    3414
    3432       1    3390    3405    3423       1    3387    3369    3390       1
    3381    3366    3384       1    3381    3402    3420       1    3378    3396
    3417       1    3372    3357    3375       1    3372    3393    3411       1
    3360    3351    3363       1    3360    3378    3399       1    3354    3366
    3384       1    3354    3369    3387       1    3348    3351    3363       1
    3348    3357    3375       1    3552    3543    3555       1    3552    3546
    3558       1    3546    3537    3549       1    3546    3552    3561       1
    3543    3552    3561       1    3537    3546    3558       1    3534    3543
    3555       1    3531    3513    3534       1    3522    3504    3525       1
    3522    3510    3528       1    3516    3501    3519       1    3516    3537
    3549       1    3510    3522    3540       1    3504    3486    3507       1
    3504    3522    3540       1    3498    3513    3531       1    3495    3477
    3498       1    3489    3474    3492       1    3489    3510    3528       1
    3486    3504    3525       1    3480    3465    3483       1    3480    3501
    3519       1    3468    3459    3471       1    3468    3486    3507       1
    3462    3474    3492       1    3462    3477    3495       1    3456    3459
    3471       1    3456    3465    3483       1    3660    3651    3663       1
    3660    3654    3666       1    3654    3645    3657       1    3654    3660
    3669       1    3651    3660    3669       1    3645    3654    3666       1
    3642    3651    3663       1    3639    3621    3642       1    3630    3612
    3633       1    3630    3618    3636       1    3624    3609    3627       1
    3624    3645    3657       1    3618    3630    3648       1    3612    3594
    3615       1    3612    3630    3648       1    3606    3621    3639       1
    3603    3585    3606       1    3597    3582    3600       1    3597    3618
    3636       1    3594    3612    3633       1    3588    3573    3591       1
    3588    3609    3627       1    3576    3567    3579       1    3576    3594
    3615       1    3570    3582    3600       1    3570    3585    3603       1
    3564    3567    3579       1    3564    3573    3591       1    3768    3759
    3771       1    3768    3762    3774       1    3762    3753    3765       1
    3762    3768    3777       1    3759    3768    3777       1    3753    3762
    3774       1    3750    3759    3771       1    3747    3729    3750       1
    3738    3720    3741       1    3738    3726    3744       1    3732    3717
    3735       1    3732    3753    3765       1    3726    3738    3756       1
    3720    3702    3723       1    3720    3738    3756       1    3714    3729
    3747       1    3711    3693    3714       1    3705    3690    3708       1
    3705    3726    3744       1    3702    3720    3741       1    3696    3681
    3699       1    3696    3717    3735       1    3684    3675    3687       1
    3684    3702    3723       1    3678    3690    3708       1    3678    3693
    3711       1    3672    3675    3687       1    3672    3681    3699       1
    3876    3867    3879       1    3876    3870    3882       1    3870    3861
    3873       1    3870    3876    3885       1    3867    3876    3885       1
    3861    3870    3882       1    3858    3867    3879       1    3855    3837
    3858       1    3846    3828    3849       1    3846    3834    3852       1
    3840    3825    3843       1    3840    3861    3873       1    3834    3846
    3864       1    3828    3810    3831       1    3828    3846    3864       1
    3822    3837    3855       1    3819    3801    3822       1    3813    3798
    3816       1    3813    3834    3852       1    3810    3828    3849       1
    3804    3789    3807       1    3804    3825    3843       1    3792    3783
    3795       1    3792    3810    3831       1    3786    3798    3816       1
    3786    3801    3819       1    3780    3783    3795       1    3780    3789
    3807       1    3984    3975    3987       1    3984    3978    3990       1
    3978    3969    3981       1    3978    3984    3993       1    3975    3984
    3993       1    3969    3978    3990       1    3966    3975    3987       1
    3963    3945    3966       1    3954    3936    3957       1    3954    3942
    3960       1    3948    3933    3951       1    3948    3969    3981       1
    3942    3954    3972       1    3936    3918    3939       1    3936    3954
    3972       1    3930    3945    3963       1    3927    3909    3930       1
    3921    3906    3924       1    3921    3942    3960       1    3918    3936
    3957       1    3912    3897    3915       1    3912    3933    3951       1
    3900    3891    3903       1    3900    3918    3939       1    3894    3906
    3924       1    3894    3909    3927       1    3888    3891    3903       1
    3888    3897    3915       1    4092    4083    4095       1    4092    4086
    4098       1    4086    4077    4089       1    4086    4092    4101       1
    4083    4092    4101       1    4077    4086    4098       1    4074    4083
    4095       1    4071    4053    4074       1    4062    4044    4065       1
    4062    4050    4068       1    4056    4041    4059       1    4056    4077
    4089       1    4050    4062    4080       1    4044    4026    4047       1
    4044    4062    4080       1    4038    4053    4071       1    4035    4017
    4038       1    4029    4014    4032       1    4029    4050    4068       1
    4026    4044    4065       1    4020    4005    4023       1    4020    4041
    4059       1    4008    3999    4011       1    4008    4026    4047       1
    4002    4014    4032       1    4002    4017    4035       1    3996    3999
    4011       1    3996    4005    4023       1    4200    4191    4203       1
    4200    4194    4206       1    4194    4185    4197       1    4194    4200
    4209       1    4191    4200    4209       1    4185    4194    4206       1
    4182    4191    4203       1    4179    4161    4182       1    4170    4152
    4173       1    4170    4158    4176       1    4164    4149    4167       1
    4164    4185    4197       1    4158    4170    4188       1    4152    4134
    4155       1    4152    4170    4188       1    4146    4161    4179       1
    4143    4125    4146       1    4137    4122    4140       1    4137    4158
    4176       1    4134    4152    4173       1    4128    4113    4131       1
    4128    4149    4167       1    4116    4107    4119       1    4116    4134
    4155       1    4110    4122    4140       1    4110    4125    4143       1
    4104    4107    4119       1    4104    4113    4131       1    4308    4299
    4311       1    4308    4302    4314       1    4302    4293    4305       1
    4302    4308    4317       1    4299    4308    4317       1    4293    4302
    4314       1    4290    4299    4311       1    4287    4269    4290       1
    4278    4260    4281       1    4278    4266    4284       1    4272    4257
    4275       1    4272    4293    4305       1    4266    4278    4296       1
    4260    4242    4263       1    4260    4278    4296       1    4254    4269
    4287       1    4251    4233    4254       1    4245    4230    4248       1
    4245    4266    4284       1    4242    4260    4281       1    4236    4221
    4239       1    4236    4257    4275       1    4224    4215    4227       1
    4224    4242    4263       1    4218    4230    4248       1    4218    4233
    4251       1    4212    4215    4227       1    4212    4221    4239       1
    4416    4407    4419       1    4416    4410    4422       1    4410    4401
    4413       1    4410    4416    4425       1    4407    4416    4425       1
    4401    4410    4422       1    4398    4407    4419       1    4395    4377
    4398       1    4386    4368    4389       1    4386    4374    4392       1
    4380    4365    4383       1    4380    4401    4413       1    4374    4386
    4404       1    4368    4350    4371       1    4368    4386    4404       1
    4362    4377    4395       1    4359    4341    4362       1    4353    4338
    4356       1    4353    4374    4392       1    4350    4368    4389       1
    4344    4329    4347       1    4344    4365    4383       1    4332    4323
    4335       1    4332    4350    4371       1    4326    4338    4356       1
    4326    4341    4359       1    4320    4323    4335       1    4320    4329
    4347       1    4524    4515    4527       1    4524    4518    4530       1
    4518    4509    4521       1    4518    4524    4533       1    4515    4524
    4533       1    4509    4518    4530       1    4506    4515    4527       1
    4503    4485    4506       1    4494    4476    4497       1    4494    4482
    4500       1    4488    4473    4491       1    4488    4509    4521       1
    4482    4494    4512       1    4476    4458    4479       1    4476    4494
    4512       1    4470    4485    4503       1    4467    4449    4470       1
    4461    4446    4464       1    4461    4482    4500       1    4458    4476
    4497       1    4452    4437    4455       1    4452    4473    4491       1
    4440    4431    4443       1    4440    4458    4479       1    4434    4446
    4464       1    4434    4449    4467       1    4428    4431    4443       1
    4428    4437    4455       1    4632    4623    4635       1    4632    4626
    4638       1    4626    4617    4629       1    4626    4632    4641       1
    4623    4632    4641       1    4617    4626    4638       1    4614    4623
    4635       1    4611    4593    4614       1    4602    4584    4605       1
    4602    4590    4608       1    4596    4581    4599       1    4596    4617
    4629       1    4590    4602    4620       1    4584    4566    4587       1
    4584    4602    4620       1    4578    4593    4611       1    4575    4557
    4578       1    4569    4554    4572       1    4569    4590    4608       1
    4566    4584    4605       1    4560    4545    4563       1    4560    4581
    4599       1    4548    4539    4551       1    4548    4566    4587       1
    4542    4554    4572       1    4542    4557    4575       1    4536    4539
    4551       1    4536    4545    4563       1    4740    4731    4743       1
    4740    4734    4746       1    4734    4725    4737       1    4734    4740
    4749       1    4731    4740    4749       1    4725    4734    4746       1
    4722    4731    4743       1    4719    4701    4722       1    4710    4692
    4713       1    4710    4698    4716       1    4704    4689    4707       1
    4704    4725    4737       1    4698    4710    4728       1    4692    4674
    4695       1    4692    4710    4728       1    4686    4701    4719       1
    4683    4665    4686       1    4677    4662    4680       1    4677    4698
    4716       1    4674    4692    4713       1    4668    4653    4671       1
    4668    4689    4707       1    4656    4647    4659       1    4656    4674
    4695       1    4650    4662    4680       1    4650    4665    4683       1
    4644    4647    4659       1    4644    4653    4671       1    4848    4839
    4851       1    4848    4842    4854       1    4842    4833    4845       1
    4842    4848    4857       1    4839    4848    4857       1    4833    4842
    4854       1    4830    4839    4851       1    4827    4809    4830       1
    4818    4800    4821       1    4818    4806    4824       1    4812    4797
    4815       1    4812    4833    4845       1    4806    4818    4836       1
    4800    4782    4803       1    4800    4818    4836       1    4794    4809
    4827       1    4791    4773    4794       1    4785    4770    4788       1
    4785    4806    4824       1    4782    4800    4821       1    4776    4761
    4779       1    4776    4797    4815       1    4764    4755    4767       1
    4764    4782    4803       1    4758    4770    4788       1    4758    4773
    4791       1    4752    4755    4767       1    4752    4761    4779       1
    4956    4947    4959       1    4956    4950    4962       1    4950    4941
    4953       1    4950    4956    4965       1    4947    4956    4965       1
    4941    4950    4962       1    4938    4947    4959       1    4935    4917
    4938       1    4926    4908    4929       1    4926    4914    4932       1
    4920    4905    4923       1    4920    4941    4953       1    4914    4926
    4944       1    4908    4890    4911       1    4908    4926    4944       1
    4902    4917    4935       1    4899    4881    4902       1    4893    4878
    4896       1    4893    4914    4932       1    4890    4908    4929       1
    4884    4869    4887       1    4884    4905    4923       1    4872    4863
    4875       1    4872    4890    4911       1    4866    4878    4896       1
    4866    4881    4899       1    4860    4863    4875       1    4860    4869
    4887       1    5064    5055    5067       1    5064    5058    5070       1
    5058    5049    5061       1    5058    5064    5073       1    5055    5064
    5073       1    5049    5058    5070       1    5046    5055    5067       1
    5043    5025    5046       1    5034    5016    5037       1    5034    5022
    5040       1    5028    5013    5031       1    5028    5049    5061       1
    5022    5034    5052       1    5016    4998    5019       1    5016    5034
    5052       1    5010    5025    5043       1    5007    4989    5010       1
    5001    4986    5004       1    5001    5022    5040       1    4998    5016
    5037       1    4992    4977    4995       1    4992    5013    5031       1
    4980    4971    4983       1    4980    4998    5019       1    4974    4986
    5004       1    4974    4989    5007       1    4968    4971    4983       1
    4968    4977    4995       1    5172    5163    5175       1    5172    5166
    5178       1    5166    5157    5169       1    5166    5172    5181       1
    5163    5172    5181       1    5157    5166    5178       1    5154    5163
    5175       1    5151    5133    5154       1    5142    5124    5145       1
    5142    5130    5148       1    5136    5121    5139       1    5136    5157
    5169       1    5130    5142    5160       1    5124    5106    5127       1
    5124    5142    5160       1    5118    5133    5151       1    5115    5097
    5118       1    5109    5094    5112       1    5109    5130    5148       1
    5106    5124    5145       1    5100    5085    5103       1    5100    5121
    5139       1    5088    5079    5091       1    5088    5106    5127       1
    5082    5094    5112       1    5082    5097    5115       1    5076    5079
    5091       1    5076    5085    5103       1    5280    5271    5283       1
    5280    5274    5286       1    5274    5265    5277       1    5274    5280
    5289       1    5271    5280    5289       1    5265    5274    5286       1
    5262    5271    5283       1    5259    5241    5262       1    5250    5232
    5253       1    5250    5238    5256       1    5244    5229    5247       1
    5244    5265    5277       1    5238    5250    5268       1    5232    5214
    5235       1    5232    5250    5268       1    5226    5241    5259       1
    5223    5205    5226       1    5217    5202    5220       1    5217    5238
    5256       1    5214    5232    5253       1    5208    5193    5211       1
    5208    5229    5247       1    5196    5187    5199       1    5196    5214
    5235       1    5190    5202    5220       1    5190    5205    5223       1
    5184    5187    5199       1    5184    5193    5211       1    5388    5379
    5391       1    5388    5382    5394       1    5382    5373    5385       1
    5382    5388    5397       1    5379    5388    5397       1    5373    5382
    5394       1    5370    5379    5391       1    5367    5349    5370       1
    5358    5340    5361       1    5358    5346    5364       1    5352    5337
    5355       1    5352    5373    5385       1    5346    5358    5376       1
    5340    5322    5343       1    5340    5358    5376       1    5334    5349
    5367       1    5331    5313    5334       1    5325    5310    5328       1
    5325    5346    5364       1    5322    5340    5361       1    5316    5301
    5319       1    5316    5337    5355       1    5304    5295    5307       1
    5304    5322    5343       1    5298    5310    5328       1    5298    5313
    5331       1    5292    5295    5307       1    5292    5301    5319       1
    5496    5487    5499       1    5496    5490    5502       1    5490    5481
    5493       1    5490    5496    5505       1    5487    5496    5505       1
    5481    5490    5502       1    5478    5487    5499       1    5475    5457
    5478       1    5466    5448    5469       1    5466    5454    5472       1
    5460    5445    5463       1    5460    5481    5493       1    5454    5466
    5484       1    5448    5430    5451       1    5448    5466    5484       1
    5442    5457    5475       1    5439    5421    5442       1    5433    5418
    5436       1    5433    5454    5472       1    5430    5448    5469       1
    5424    5409    5427       1    5424    5445    5463       1    5412    5403
    5415       1    5412    5430    5451       1    5406    5418    5436       1
    5406    5421    5439       1    5400    5403    5415       1    5400    5409
    5427       1    5604    5595    5607       1    5604    5598    5610       1
    5598    5589    5601       1    5598    5604    5613       1    5595    5604
    5613       1    5589    5598    5610       1    5586    5595    5607       1
    5583    5565    5586       1    5574    5556    5577       1    5574    5562
    5580       1    5568    5553    5571       1    5568    5589    5601       1
    5562    5574    5592       1    5556    5538    5559       1    5556    5574
    5592       1    5550    5565    5583       1    5547    5529    5550       1
    5541    5526    5544       1    5541    5562    5580       1    5538    5556
    5577       1    5532    5517    5535       1    5532    5553    5571       1
    5520    5511    5523       1    5520    5538    5559       1    5514    5526
    5544       1    5514    5529    5547       1    5508    5511    5523       1
    5508    5517    5535       1    5712    5703    5715       1    5712    5706
    5718       1    5706    5697    5709       1    5706    5712    5721       1
    5703    5712    5721       1    5697    5706    5718       1    5694    5703
    5715       1    5691    5673    5694       1    5682    5664    5685       1
    5682    5670    5688       1    5676    5661    5679       1    5676    5697
    5709       1    5670    5682    5700       1    5664    5646    5667       1
    5664    5682    5700       1    5658    5673    5691       1    5655    5637
    5658       1    5649    5634    5652       1    5649    5670    5688       1
    5646    5664    5685       1    5640    5625    5643       1    5640    5661
    5679       1    5628    5619    5631       1    5628    5646    5667       1
    5622    5634    5652       1    5622    5637    5655       1    5616    5619
    5631       1    5616    5625    5643       1    5820    5811    5823       1
    5820    5814    5826       1    5814    5805    5817       1    5814    5820
    5829       1    5811    5820    5829       1    5805    5814    5826       1
    5802    5811    5823       1    5799    5781    5802       1    5790    5772
    5793       1    5790    5778    5796       1    5784    5769    5787       1
    5784    5805    5817       1    5778    5790    5808       1    5772    5754
    5775       1    5772    5790    5808       1    5766    5781    5799       1
    5763    5745    5766       1    5757    5742    5760       1    5757    5778
    5796       1    5754    5772    5793       1    5748    5733    5751       1
    5748    5769    5787       1    5736    5727    5739       1    5736    5754
    5775       1    5730    5742    5760       1    5730    5745    5763       1
    5724    5727    5739       1    5724    5733    5751       1    5928    5919
    5931       1    5928    5922    5934       1    5922    5913    5925       1
    5922    5928    5937       1    5919    5928    5937       1    5913    5922
    5934       1    5910    5919    5931       1    5907    5889    5910       1
    5898    5880    5901       1    5898    5886    5904       1    5892    5877
    5895       1    5892    5913    5925       1    5886    5898    5916       1
    5880    5862    5883       1    5880    5898    5916       1    5874    5889
    5907       1    5871    5853    5874       1    5865    5850    5868       1
    5865    5886    5904       1    5862    5880    5901       1    5856    5841
    5859       1    5856    5877    5895       1    5844    5835    5847       1
    5844    5862    5883       1    5838    5850    5868       1    5838    5853
    5871       1    5832    5835    5847       1    5832    5841    5859       1
    6036    6027    6039       1    6036    6030    6042       1    6030    6021
    6033       1    6030    6036    6045       1    6027    6036    6045       1
    6021    6030    6042       1    6018    6027    6039       1    6015    5997
    6018       1    6006    5988    6009       1    6006    5994    6012       1
    6000    5985    6003       1    6000    6021    6033       1    5994    6006
    6024       1    5988    5970    5991       1    5988    6006    6024       1
    5982    5997    6015       1    5979    5961    5982       1    5973    5958
    5976       1    5973    5994    6012       1    5970    5988    6009       1
    5964    5949    5967       1    5964    5985    6003       1    5952    5943
    5955       1    5952    5970    5991       1    5946    5958    5976       1
    5946    5961    5979       1    5940    5943    5955       1    5940    5949
    5967       1    6144    6135    6147       1    6144    6138    6150       1
    6138    6129    6141       1    6138    6144    6153       1    6135    6144
    6153       1    6129    6138    6150       1    6126    6135    6147       1
    6123    6105    6126       1    6114    6096    6117       1    6114    6102
    6120       1    6108    6093    6111       1    6108    6129    6141       1
    6102    6114    6132       1    6096    6078    6099       1    6096    6114
    6132       1    6090    6105    6123       1    6087    6069    6090       1
    6081    6066    6084       1    6081    6102    6120       1    6078    6096
    6117       1    6072    6057    6075       1    6072    6093    6111       1
    6060    6051    6063       1    6060    6078    6099       1    6054    6066
    6084       1    6054    6069    6087       1    6048    6051    6063       1
    6048    6057    6075       1    6252    6243    6255       1    6252    6246
    6258       1    6246    6237    6249       1    6246    6252    6261       1
    6243    6252    6261       1    6237    6246    6258       1    6234    6243
    6255       1    6231    6213    6234       1    6222    6204    6225       1
    6222    6210    6228       1    6216    6201    6219       1    6216    6237
    6249       1    6210    6222    6240       1    6204    6186    6207       1
    6204    6222    6240       1    6198    6213    6231       1    6195    6177
    6198       1    6189    6174    6192       1    6189    6210    6228       1
    6186    6204    6225       1    6180    6165    6183       1    6180    6201
    6219       1    6168    6159    6171       1    6168    6186    6207       1
    6162    6174    6192       1    6162    6177    6195       1    6156    6159
    6171       1    6156    6165    6183       1    6360    6351    6363       1
    6360    6354    6366       1    6354    6345    6357       1    6354    6360
    6369       1    6351    6360    6369       1    6345    6354    6366       1
    6342    6351    6363       1    6339    6321    6342       1    6330    6312
    6333       1    6330    6318    6336       1    6324    6309    6327       1
    6324    6345    6357       1    6318    6330    6348       1    6312    6294
    6315       1    6312    6330    6348       1    6306    6321    6339       1
    6303    6285    6306       1    6297    6282    6300       1    6297    6318
    6336       1    6294    6312    6333       1    6288    6273    6291       1
    6288    6309    6327       1    6276    6267    6279       1    6276    6294
    6315       1    6270    6282    6300       1    6270    6285    6303       1
    6264    6267    6279       1    6264    6273    6291       1    6468    6459
    6471       1    6468    6462    6474       1    6462    6453    6465       1
    6462    6468    6477       1    6459    6468    6477       1    6453    6462
    6474       1    6450    6459    6471       1    6447    6429    6450       1
    6438    6420    6441       1    6438    6426    6444       1    6432    6417
    6435       1    6432    6453    6465       1    6426    6438    6456       1
    6420    6402    6423       1    6420    6438    6456       1    6414    6429
    6447       1    6411    6393    6414       1    6405    6390    6408       1
    6405    6426    6444       1    6402    6420    6441       1    6396    6381
    6399       1    6396    6417    6435       1    6384    6375    6387       1
    6384    6402    6423       1    6378    6390    6408       1    6378    6393
    6411       1    6372    6375    6387       1    6372    6381    6399       1
    6576    6567    6579       1    6576    6570    6582       1    6570    6561
    6573       1    6570    6576    6585       1    6567    6576    6585       1
    6561    6570    6582       1    6558    6567    6579       1    6555    6537
    6558       1    6546    6528    6549       1    6546    6534    6552       1
    6540    6525    6543       1    6540    6561    6573       1    6534    6546
    6564       1    6528    6510    6531       1    6528    6546    6564       1
    6522    6537    6555       1    6519    6501    6522       1    6513    6498
    6516       1    6513    6534    6552       1    6510    6528    6549       1
    6504    6489    6507       1    6504    6525    6543       1    6492    6483
    6495       1    6492    6510    6531       1    6486    6498    6516       1
    6486    6501    6519       1    6480    6483    6495       1    6480    6489
    6507       1    6684    6675    6687       1    6684    6678    6690       1
    6678    6669    6681       1    6678    6684    6693       1    6675    6684
    6693       1    6669    6678    6690       1    6666    6675    6687       1
    6663    6645    6666       1    6654    6636    6657       1    6654    6642
    6660       1    6648    6633    6651       1    6648    6669    6681       1
    6642    6654    6672       1    6636    6618    6639       1    6636    6654
    6672       1    6630    6645    6663       1    6627    6609    6630       1
    6621    6606    6624       1    6621    6642    6660       1    6618    6636
    6657       1    6612    6597    6615       1    6612    6633    6651       1
    6600    6591    6603       1    6600    6618    6639       1    6594    6606
    6624       1    6594    6609    6627       1    6588    6591    6603       1
    6588    6597    6615       1    6792    6783    6795       1    6792    6786
    6798       1    6786    6777    6789       1    6786    6792    6801       1
    6783    6792    6801       1    6777    6786    6798       1    6774    6783
    6795       1    6771    6753    6774       1    6762    6744    6765       1
    6762    6750    6768       1    6756    6741    6759       1    6756    6777
    6789       1    6750    6762    6780       1    6744    6726    6747       1
    6744    6762    6780       1    6738    6753    6771       1    6735    6717
    6738       1    6729    6714    6732       1    6729    6750    6768       1
    6726    6744    6765       1    6720    6705    6723       1    6720    6741
    6759       1    6708    6699    6711       1    6708    6726    6747       1
    6702    6714    6732       1    6702    6717    6735       1    6696    6699
    6711       1    6696    6705    6723       1    6900    6891    6903       1
    6900    6894    6906       1    6894    6885    6897       1    6894    6900
    6909       1    6891    6900    6909       1    6885    6894    6906       1
    6882    6891    6903       1    6879    6861    6882       1    6870    6852
    6873       1    6870    6858    6876       1    6864    6849    6867       1
    6864    6885    6897       1    6858    6870    6888       1    6852    6834
    6855       1    6852    6870    6888       1    6846    6861    6879       1
    6843    6825    6846       1    6837    6822    6840       1    6837    6858
    6876       1    6834    6852    6873       1    6828    6813    6831       1
    6828    6849    6867       1    6816    6807    6819       1    6816    6834
    6855       1    6810    6822    6840       1    6810    6825    6843       1
    6804    6807    6819       1    6804    6813    6831       1    7008    6999
    7011       1    7008    7002    7014       1    7002    6993    7005       1
    7002    7008    7017       1    6999    7008    7017       1    6993    7002
    7014       1    6990    6999    7011       1    6987    6969    6990       1
    6978    6960    6981       1    6978    6966    6984       1    6972    6957
    6975       1    6972    6993    7005       1    6966    6978    6996       1
    6960    6942    6963       1    6960    6978    6996       1    6954    6969
    6987       1    6951    6933    6954       1    6945    6930    6948       1
    6945    6966    6984       1    6942    6960    6981       1    6936    6921
    6939       1    6936    6957    6975       1    6924    6915    6927       1
    6924    6942    6963       1    6918    6930    6948       1    6918    6933
    6951       1    6912    6915    6927       1    6912    6921    6939       1
    7116    7107    7119       1    7116    7110    7122       1    7110    7101
    7113       1    7110    7116    7125       1    7107    7116    7125       1
    7101    7110    7122       1    7098    7107    7119       1    7095    7077
    7098       1    7086    7068    7089       1    7086    7074    7092       1
    7080    7065    7083       1    7080    7101    7113       1    7074    7086
    7104       1    7068    7050    7071       1    7068    7086    7104       1
    7062    7077    7095       1    7059    7041    7062       1    7053    7038
    7056       1    7053    7074    7092       1    7050    7068    7089       1
    7044    7029    7047       1    7044    7065    7083       1    7032    7023
    7035       1    7032    7050    7071       1    7026    7038    7056       1
    7026    7041    7059       1    7020    7023    7035       1    7020    7029
    7047       1    7224    7215    7227       1    7224    7218    7230       1
    7218    7209    7221       1    7218    7224    7233       1    7215    7224
    7233       1    7209    7218    7230       1    7206    7215    7227       1
    7203    7185    7206       1    7194    7176    7197       1    7194    7182
    7200       1    7188    7173    7191       1    7188    7209    7221       1
    7182    7194    7212       1    7176    7158    7179       1    7176    7194
    7212       1    7170    7185    7203       1    7167    7149    7170       1
    7161    7146    7164       1    7161    7182    7200       1    7158    7176
    7197       1    7152    7137    7155       1    7152    7173    7191       1
    7140    7131    7143       1    7140    7158    7179       1    7134    7146
    7164       1    7134    7149    7167       1    7128    7131    7143       1
    7128    7137    7155       1    7332    7323    7335       1    7332    7326
    7338       1    7326    7317    7329       1    7326    7332    7341       1
    7323    7332    7341       1    7317    7326    7338       1    7314    7323
    7335       1    7311    7293    7314       1    7302    7284    7305       1
    7302    7290    7308       1    7296    7281    7299       1    7296    7317
    7329       1    7290    7302    7320       1    7284    7266    7287       1
    7284    7302    7320       1    7278    7293    7311       1    7275    7257
    7278       1    7269    7254    7272       1    7269    7290    7308       1
    7266    7284    7305       1    7260    7245    7263       1    7260    7281
    7299       1    7248    7239    7251       1    7248    7266    7287       1
    7242    7254    7272       1    7242    7257    7275       1    7236    7239
    7251       1    7236    7245    7263       1    7440    7431    7443       1
    7440    7434    7446       1    7434    7425    7437       1    7434    7440
    7449       1    7431    7440    7449       1    7425    7434    7446       1
    7422    7431    7443       1    7419    7401    7422       1    7410    7392
    7413       1    7410    7398    7416       1    7404    7389    7407       1
    7404    7425    7437       1    7398    7410    7428       1    7392    7374
    7395       1    7392    7410    7428       1    7386    7401    7419       1
    7383    7365    7386       1    7377    7362    7380       1    7377    7398
    7416       1    7374    7392    7413       1    7368    7353    7371       1
    7368    7389    7407       1    7356    7347    7359       1    7356    7374
    7395       1    7350    7362    7380       1    7350    7365    7383       1
    7344    7347    7359       1    7344    7353    7371       1    7548    7539
    7551       1    7548    7542    7554       1    7542    7533    7545       1
    7542    7548    7557       1    7539    7548    7557       1    7533    7542
    7554       1    7530    7539    7551       1    7527    7509    7530       1
    7518    7500    7521       1    7518    7506    7524       1    7512    7497
    7515       1    7512    7533    7545       1    7506    7518    7536       1
    7500    7482    7503       1    7500    7518    7536       1    7494    7509
    7527       1    7491    7473    7494       1    7485    7470    7488       1
    7485    7506    7524       1    7482    7500    7521       1    7476    7461
    7479       1    7476    7497    7515       1    7464    7455    7467       1
    7464    7482    7503       1    7458    7470    7488       1    7458    7473
    7491       1    7452    7455    7467       1    7452    7461    7479       1
    7656    7647    7659       1    7656    7650    7662       1    7650    7641
    7653       1    7650    7656    7665       1    7647    7656    7665       1
    7641    7650    7662       1    7638    7647    7659       1    7635    7617
    7638       1    7626    7608    7629       1    7626    7614    7632       1
    7620    7605    7623       1    7620    7641    7653       1    7614    7626
    7644       1    7608    7590    7611       1    7608    7626    7644       1
    7602    7617    7635       1    7599    7581    7602       1    7593    7578
    7596       1    7593    7614    7632       1    7590    7608    7629       1
    7584    7569    7587       1    7584    7605    7623       1    7572    7563
    7575       1    7572    7590    7611       1    7566    7578    7596       1
    7566    7581    7599       1    7560    7563    7575       1    7560    7569
    7587       1    7764    7755    7767       1    7764    7758    7770       1
    7758    7749    7761       1    7758    7764    7773       1    7755    7764
    7773       1    7749    7758    7770       1    7746    7755    7767       1
    7743    7725    7746       1    7734    7716    7737       1    7734    7722
    7740       1    7728    7713    7731       1    7728    7749    7761       1
    7722    7734    7752       1    7716    7698    7719       1    7716    7734
    7752       1    7710    7725    7743       1    7707    7689    7710       1
    7701    7686    7704       1    7701    7722    7740       1    7698    7716
    7737       1    7692    7677    7695       1    7692    7713    7731       1
    7680    7671    7683       1    7680    7698    7719       1    7674    7686
    7704       1    7674    7689    7707       1    7668    7671    7683       1
    7668    7677    7695       1    7872    7863    7875       1    7872    7866
    7878       1    7866    7857    7869       1    7866    7872    7881       1
    7863    7872    7881       1    7857    7866    7878       1    7854    7863
    7875       1    7851    7833    7854       1    7842    7824    7845       1
    7842    7830    7848       1    7836    7821    7839       1    7836    7857
    7869       1    7830    7842    7860       1    7824    7806    7827       1
    7824    7842    7860       1    7818    7833    7851       1    7815    7797
    7818       1    7809    7794    7812       1    7809    7830    7848       1
    7806    7824    7845       1    7800    7785    7803       1    7800    7821
    7839       1    7788    7779    7791       1    7788    7806    7827       1
    7782    7794    7812       1    7782    7797    7815       1    7776    7779
    7791       1    7776    7785    7803       1    7980    7971    7983       1
    7980    7974    7986       1    7974    7965    7977       1    7974    7980
    7989       1    7971    7980    7989       1    7965    7974    7986       1
    7962    7971    7983       1    7959    7941    7962       1    7950    7932
    7953       1    7950    7938    7956       1    7944    7929    7947       1
    7944    7965    7977       1    7938    7950    7968       1    7932    7914
    7935       1    7932    7950    7968       1    7926    7941    7959       1
    7923    7905    7926       1    7917    7902    7920       1    7917    7938
    7956       1    7914    7932    7953       1    7908    7893    7911       1
    7908    7929    7947       1    7896    7887    7899       1    7896    7914
    7935       1    7890    7902    7920       1    7890    7905    7923       1
    7884    7887    7899       1    7884    7893    7911       1    8088    8079
    8091       1    8088    8082    8094       1    8082    8073    8085       1
    8082    8088    8097       1    8079    8088    8097       1    8073    8082
    8094       1    8070    8079    8091       1    8067    8049    8070       1
    8058    8040    8061       1    8058    8046    8064       1    8052    8037
    8055       1    8052    8073    8085       1    8046    8058    8076       1
    8040    8022    8043       1    8040    8058    8076       1    8034    8049
    8067       1    8031    8013    8034       1    8025    8010    8028       1
    8025    8046    8064       1    8022    8040    8061       1    8016    8001
    8019       1    8016    8037    8055       1    8004    7995    8007       1
    8004    8022    8043       1    7998    8010    8028       1    7998    8013
    8031       1    7992    7995    8007       1    7992    8001    8019       1
    8196    8187    8199       1    8196    8190    8202       1    8190    8181
    8193       1    8190    8196    8205       1    8187    8196    8205       1
    8181    8190    8202       1    8178    8187    8199       1    8175    8157
    8178       1    8166    8148    8169       1    8166    8154    8172       1
    8160    8145    8163       1    8160    8181    8193       1    8154    8166
    8184       1    8148    8130    8151       1    8148    8166    8184       1
    8142    8157    8175       1    8139    8121    8142       1    8133    8118
    8136       1    8133    8154    8172       1    8130    8148    8169       1
    8124    8109    8127       1    8124    8145    8163       1    8112    8103
    8115       1    8112    8130    8151       1    8106    8118    8136       1
    8106    8121    8139       1    8100    8103    8115       1    8100    8109
    8127       1    8304    8295    8307       1    8304    8298    8310       1
    8298    8289    8301       1    8298    8304    8313       1    8295    8304
    8313       1    8289    8298    8310       1    8286    8295    8307       1
    8283    8265    8286       1    8274    8256    8277       1    8274    8262
    8280       1    8268    8253    8271       1    8268    8289    8301       1
    8262    8274    8292       1    8256    8238    8259       1    8256    8274
    8292       1    8250    8265    8283       1    8247    8229    8250       1
    8241    8226    8244       1    8241    8262    8280       1    8238    8256
    8277       1    8232    8217    8235       1    8232    8253    8271       1
    8220    8211    8223       1    8220    8238    8259       1    8214    8226
    8244       1    8214    8229    8247       1    8208    8211    8223       1
    8208    8217    8235       1    8412    8403    8415       1    8412    8406
    8418       1    8406    8397    8409       1    8406    8412    8421       1
    8403    8412    8421       1    8397    8406    8418       1    8394    8403
    8415       1    8391    8373    8394       1    8382    8364    8385       1
    8382    8370    8388       1    8376    8361    8379       1    8376    8397
    8409       1    8370    8382    8400       1    8364    8346    8367       1
    8364    8382    8400       1    8358    8373    8391       1    8355    8337
    8358       1    8349    8334    8352       1    8349    8370    8388       1
    8346    8364    8385       1    8340    8325    8343       1    8340    8361
    8379       1    8328    8319    8331       1    8328    8346    8367       1
    8322    8334    8352       1    8322    8337    8355       1    8316    8319
    8331       1    8316    8325    8343       1    8520    8511    8523       1
    8520    8514    8526       1    8514    8505    8517       1    8514    8520
    8529       1    8511    8520    8529       1    8505    8514    8526       1
    8502    8511    8523       1    8499    8481    8502       1    8490    8472
    8493       1    8490    8478    8496       1    8484    8469    8487       1
    8484    8505    8517       1    8478    8490    8508       1    8472    8454
    8475       1    8472    8490    8508       1    8466    8481    8499       1
    8463    8445    8466       1    8457    8442    8460       1    8457    8478
    8496       1    8454    8472    8493       1    8448    8433    8451       1
    8448    8469    8487       1    8436    8427    8439       1    8436    8454
    8475       1    8430    8442    8460       1    8430    8445    8463       1
    8424    8427    8439       1    8424    8433    8451       1    8628    8619
    8631       1    8628    8622    8634       1    8622    8613    8625       1
    8622    8628    8637       1    8619    8628    8637       1    8613    8622
    8634       1    8610    8619    8631       1    8607    8589    8610       1
    8598    8580    8601       1    8598    8586    8604       1    8592    8577
    8595       1    8592    8613    8625       1    8586    8598    8616       1
    8580    8562    8583       1    8580    8598    8616       1    8574    8589
    8607       1    8571    8553    8574       1    8565    8550    8568       1
    8565    8586    8604       1    8562    8580    8601       1    8556    8541
    8559       1    8556    8577    8595       1    8544    8535    8547       1
    8544    8562    8583       1    8538    8550    8568       1    8538    8553
    8571       1    8532    8535    8547       1    8532    8541    8559       1
    8736    8727    8739       1    8736    8730    8742       1    8730    8721
    8733       1    8730    8736    8745       1    8727    8736    8745       1
    8721    8730    8742       1    8718    8727    8739       1    8715    8697
    8718       1    8706    8688    8709       1    8706    8694    8712       1
    8700    8685    8703       1    8700    8721    8733       1    8694    8706
    8724       1    8688    8670    8691       1    8688    8706    8724       1
    8682    8697    8715       1    8679    8661    8682       1    8673    8658
    8676       1    8673    8694    8712       1    8670    8688    8709       1
    8664    8649    8667       1    8664    8685    8703       1    8652    8643
    8655       1    8652    8670    8691       1    8646    8658    8676       1
    8646    8661    8679       1    8640    8643    8655       1    8640    8649
    8667       1    8844    8835    8847       1    8844    8838    8850       1
    8838    8829    8841       1    8838    8844    8853       1    8835    8844
    8853       1    8829    8838    8850       1    8826    8835    8847       1
    8823    8805    8826       1    8814    8796    8817       1    8814    8802
    8820       1    8808    8793    8811       1    8808    8829    8841       1
    8802    8814    8832       1    8796    8778    8799       1    8796    8814
    8832       1    8790    8805    8823       1    8787    8769    8790       1
    8781    8766    8784       1    8781    8802    8820       1    8778    8796
    8817       1    8772    8757    8775       1    8772    8793    8811       1
    8760    8751    8763       1    8760    8778    8799       1    8754    8766
    8784       1    8754    8769    8787       1    8748    8751    8763       1
    8748    8757    8775       1    8952    8943    8955       1    8952    8946
    8958       1    8946    8937    8949       1    8946    8952    8961       1
    8943    8952    8961       1    8937    8946    8958       1    8934    8943
    8955       1    8931    8913    8934       1    8922    8904    8925       1
    8922    8910    8928       1    8916    8901    8919       1    8916    8937
    8949       1    8910    8922    8940       1    8904    8886    8907       1
    8904    8922    8940       1    8898    8913    8931       1    8895    8877
    8898       1    8889    8874    8892       1    8889    8910    8928       1
    8886    8904    8925       1    8880    8865    8883       1    8880    8901
    8919       1    8868    8859    8871       1    8868    8886    8907       1
    8862    8874    8892       1    8862    8877    8895       1    8856    8859
    8871       1    8856    8865    8883       1    9060    9051    9063       1
    9060    9054    9066       1    9054    9045    9057       1    9054    9060
    9069       1    9051    9060    9069       1    9045    9054    9066       1
    9042    9051    9063       1    9039    9021    9042       1    9030    9012
    9033       1    9030    9018    9036       1    9024    9009    9027       1
    9024    9045    9057       1    9018    9030    9048       1    9012    8994
    9015       1    9012    9030    9048       1    9006    9021    9039       1
    9003    8985    9006       1    8997    8982    9000       1    8997    9018
    9036       1    8994    9012    9033       1    8988    8973    8991       1
    8988    9009    9027       1    8976    8967    8979       1    8976    8994
    9015       1    8970    8982    9000       1    8970    8985    9003       1
    8964    8967    8979       1    8964    8973    8991       1    9168    9159
    9171       1    9168    9162    9174       1    9162    9153    9165       1
    9162    9168    9177       1    9159    9168    9177       1    9153    9162
    9174       1    9150    9159    9171       1    9147    9129    9150       1
    9138    9120    9141       1    9138    9126    9144       1    9132    9117
    9135       1    9132    9153    9165       1    9126    9138    9156       1
    9120    9102    9123       1    9120    9138    9156       1    9114    9129
    9147       1    9111    9093    9114       1    9105    9090    9108       1
    9105    9126    9144       1    9102    9120    9141       1    9096    9081
    9099       1    9096    9117    9135       1    9084    9075    9087       1
    9084    9102    9123       1    9078    9090    9108       1    9078    9093
    9111       1    9072    9075    9087       1    9072    9081    9099       1
    9276    9267    9279       1    9276    9270    9282       1    9270    9261
    9273       1    9270    9276    9285       1    9267    9276    9285       1
    9261    9270    9282       1    9258    9267    9279       1    9255    9237
    9258       1    9246    9228    9249       1    9246    9234    9252       1
    9240    9225    9243       1    9240    9261    9273       1    9234    9246
    9264       1    9228    9210    9231       1    9228    9246    9264       1
    9222    9237    9255       1    9219    9201    9222       1    9213    9198
    9216       1    9213    9234    9252       1    9210    9228    9249       1
    9204    9189    9207       1    9204    9225    9243       1    9192    9183
    9195       1    9192    9210    9231       1    9186    9198    9216       1
    9186    9201    9219       1    9180    9183    9195       1    9180    9189
    9207       1    9384    9375    9387       1    9384    9378    9390       1
    9378    9369    9381       1    9378    9384    9393       1    9375    9384
    9393       1    9369    9378    9390       1    9366    9375    9387       1
    9363    9345    9366       1    9354    9336    9357       1    9354    9342
    9360       1    9348    9333    9351       1    9348    9369    9381       1
    9342    9354    9372       1    9336    9318    9339       1    9336    9354
    9372       1    9330    9345    9363       1    9327    9309    9330       1
    9321    9306    9324       1    9321    9342    9360       1    9318    9336
    9357       1    9312    9297    9315       1    9312    9333    9351       1
    9300    9291    9303       1    9300    9318    9339       1    9294    9306
    9324       1    9294    9309    9327       1    9288    9291    9303       1
    9288    9297    9315       1    9492    9483    9495       1    9492    9486
    9498       1    9486    9477    9489       1    9486    9492    9501       1
    9483    9492    9501       1    9477    9486    9498       1    9474    9483
    9495       1    9471    9453    9474       1    9462    9444    9465       1
    9462    9450    9468       1    9456    9441    9459       1    9456    9477
    9489       1    9450    9462    9480       1    9444    9426    9447       1
    9444    9462    9480       1    9438    9453    9471       1    9435    9417
    9438       1    9429    9414    9432       1    9429    9450    9468       1
    9426    9444    9465       1    9420    9405    9423       1    9420    9441
    9459       1    9408    9399    9411       1    9408    9426    9447       1
    9402    9414    9432       1    9402    9417    9435       1    9396    9399
    9411       1    9396    9405    9423       1    9600    9591    9603       1
    9600    9594    9606       1    9594    9585    9597       1    9594    9600
    9609       1    9591    9600    9609       1    9585    9594    9606       1
    9582    9591    9603       1    9579    9561    9582       1    9570    9552
    9573       1    9570    9558    9576       1    9564    9549    9567       1
    9564    9585    9597       1    9558    9570    9588       1    9552    9534
    9555       1    9552    9570    9588       1    9546    9561    9579       1
    9543    9525    9546       1    9537    9522    9540       1    9537    9558
    9576       1    9534    9552    9573       1    9528    9513    9531       1
    9528    9549    9567       1    9516    9507    9519       1    9516    9534
    9555       1    9510    9522    9540       1    9510    9525    9543       1
    9504    9507    9519       1    9504    9513    9531       1    9708    9699
    9711       1    9708    9702    9714       1    9702    9693    9705       1
    9702    9708    9717       1    9699    9708    9717       1    9693    9702
    9714       1    9690    9699    9711       1    9687    9669    9690       1
    9678    9660    9681       1    9678    9666    9684       1    9672    9657
    9675       1    9672    9693    9705       1    9666    9678    9696       1
    9660    9642    9663       1    9660    9678    9696       1    9654    9669
    9687       1    9651    9633    9654       1    9645    9630    9648       1
    9645    9666    9684       1    9642    9660    9681       1    9636    9621
    9639       1    9636    9657    9675       1    9624    9615    9627       1
    9624    9642    9663       1    9618    9630    9648       1    9618    9633
    9651       1    9612    9615    9627       1    9612    9621    9639       1
    9816    9807    9819       1    9816    9810    9822       1    9810    9801
    9813       1    9810    9816    9825       1    9807    9816    9825       1
    9801    9810    9822       1    9798    9807    9819       1    9795    9777
    9798       1    9786    9768    9789       1    9786    9774    9792       1
    9780    9765    9783       1    9780    9801    9813       1    9774    9786
    9804       1    9768    9750    9771       1    9768    9786    9804       1
    9762    9777    9795       1    9759    9741    9762       1    9753    9738
    9756       1    9753    9774    9792       1    9750    9768    9789       1
    9744    9729    9747       1    9744    9765    9783       1    9732    9723
    9735       1    9732    9750    9771       1    9726    9738    9756       1
    9726    9741    9759       1    9720    9723    9735       1    9720    9729
    9747       1    9924    9915    9927       1    9924    9918    9930       1
    9918    9909    9921       1    9918    9924    9933       1    9915    9924
    9933       1    9909    9918    9930       1    9906    9915    9927       1
    9903    9885    9906       1    9894    9876    9897       1    9894    9882
    9900       1    9888    9873    9891       1    9888    9909    9921       1
    9882    9894    9912       1    9876    9858    9879       1    9876    9894
    9912       1    9870    9885    9903       1    9867    9849    9870       1
    9861    9846    9864       1    9861    9882    9900       1    9858    9876
    9897       1    9852    9837    9855       1    9852    9873    9891       1
    9840    9831    9843       1    9840    9858    9879       1    9834    9846
    9864       1    9834    9849    9867       1    9828    9831    9843       1
    9828    9837    9855       1   10032   10023   10035       1   10032   10026
   10038       1   10026   10017   10029       1   10026   10032   10041       1
   10023   10032   10041       1   10017   10026   10038       1   10014   10023
   10035       1   10011    9993   10014       1   10002    9984   10005       1
   10002    9990   10008       1    9996    9981    9999       1    9996   10017
   10029       1    9990   10002   10020       1    9984    9966    9987       1
    9984   10002   10020       1    9978    9993   10011       1    9975    9957
    9978       1    9969    9954    9972       1    9969    9990   10008       1
    9966    9984   10005       1    9960    9945    9963       1    9960    9981
    9999       1    9948    9939    9951       1    9948    9966    9987       1
    9942    9954    9972       1    9942    9957    9975       1    9936    9939
    9951       1    9936    9945    9963       1   10140   10131   10143       1
   10140   10134   10146       1   10134   10125   10137       1   10134   10140
   10149       1   10131   10140   10149       1   10125   10134   10146       1
   10122   10131   10143       1   10119   10101   10122       1   10110   10092
   10113       1   10110   10098   10116       1   10104   10089   10107       1
   10104   10125   10137       1   10098   10110   10128       1   10092   10074
   10095       1   10092   10110   10128       1   10086   10101   10119       1
   10083   10065   10086       1   10077   10062   10080       1   10077   10098
   10116       1   10074   10092   10113       1   10068   10053   10071       1
   10068   10089   10107       1   10056   10047   10059       1   10056   10074
   10095       1   10050   10062   10080       1   10050   10065   10083       1
   10044   10047   10059       1   10044   10053   10071       1   10248   10239
   10251       1   10248   10242   10254       1   10242   10233   10245       1
   10242   10248   10257       1   10239   10248   10257       1   10233   10242
   10254       1   10230   10239   10251       1   10227   10209   10230       1
   10218   10200   10221       1   10218   10206   10224       1   10212   10197
   10215       1   10212   10233   10245       1   10206   10218   10236       1
   10200   10182   10203       1   10200   10218   10236       1   10194   10209
   10227       1   10191   10173   10194       1   10185   10170   10188       1
   10185   10206   10224       1   10182   10200   10221       1   10176   10161
   10179       1   10176   10197   10215       1   10164   10155   10167       1
   10164   10182   10203       1   10158   10170   10188       1   10158   10173
   10191       1   10152   10155   10167       1   10152   10161   10179       1
   10356   10347   10359       1   10356   10350   10362       1   10350   10341
   10353       1   10350   10356   10365       1   10347   10356   10365       1
   10341   10350   10362       1   10338   10347   10359       1   10335   10317
   10338       1   10326   10308   10329       1   10326   10314   10332       1
   10320   10305   10323       1   10320   10341   10353       1   10314   10326
   10344       1   10308   10290   10311       1   10308   10326   10344       1
   10302   10317   10335       1   10299   10281   10302       1   10293   10278
   10296       1   10293   10314   10332       1   10290   10308   10329       1
   10284   10269   10287       1   10284   10305   10323       1   10272   10263
   10275       1   10272   10290   10311       1   10266   10278   10296       1
   10266   10281   10299       1   10260   10263   10275       1   10260   10269
   10287       1   10464   10455   10467       1   10464   10458   10470       1
   10458   10449   10461       1   10458   10464   10473       1   10455   10464
   10473       1   10449   10458   10470       1   10446   10455   10467       1
   10443   10425   10446       1   10434   10416   10437       1   10434   10422
   10440       1   10428   10413   10431       1   10428   10449   10461       1
   10422   10434   10452       1   10416   10398   10419       1   10416   10434
   10452       1   10410   10425   10443       1   10407   10389   10410       1
   10401   10386   10404       1   10401   10422   10440       1   10398   10416
   10437       1   10392   10377   10395       1   10392   10413   10431       1
   10380   10371   10383       1   10380   10398   10419       1   10374   10386
   10404       1   10374   10389   10407       1   10368   10371   10383       1
   10368   10377   10395       1   10572   10563   10575       1   10572   10566
   10578       1   10566   10557   10569       1   10566   10572   10581       1
   10563   10572   10581       1   10557   10566   10578       1   10554   10563
   10575       1   10551   10533   10554       1   10542   10524   10545       1
   10542   10530   10548       1   10536   10521   10539       1   10536   10557
   10569       1   10530   10542   10560       1   10524   10506   10527       1
   10524   10542   10560       1   10518   10533   10551       1   10515   10497
   10518       1   10509   10494   10512       1   10509   10530   10548       1
   10506   10524   10545       1   10500   10485   10503       1   10500   10521
   10539       1   10488   10479   10491       1   10488   10506   10527       1
   10482   10494   10512       1   10482   10497   10515       1   10476   10479
   10491       1   10476   10485   10503       1   10680   10671   10683       1
   10680   10674   10686       1   10674   10665   10677       1   10674   10680
   10689       1   10671   10680   10689       1   10665   10674   10686       1
   10662   10671   10683       1   10659   10641   10662       1   10650   10632
   10653       1   10650   10638   10656       1   10644   10629   10647       1
   10644   10665   10677       1   10638   10650   10668       1   10632   10614
   10635       1   10632   10650   10668       1   10626   10641   10659       1
   10623   10605   10626       1   10617   10602   10620       1   10617   10638
   10656       1   10614   10632   10653       1   10608   10593   10611       1
   10608   10629   10647       1   10596   10587   10599       1   10596   10614
   10635       1   10590   10602   10620       1   10590   10605   10623       1
   10584   10587   10599       1   10584   10593   10611       1   10788   10779
   10791       1   10788   10782   10794       1   10782   10773   10785       1
   10782   10788   10797       1   10779   10788   10797       1   10773   10782
   10794       1   10770   10779   10791       1   10767   10749   10770       1
   10758   10740   10761       1   10758   10746   10764       1   10752   10737
   10755       1   10752   10773   10785       1   10746   10758   10776       1
   10740   10722   10743       1   10740   10758   10776       1   10734   10749
   10767       1   10731   10713   10734       1   10725   10710   10728       1
   10725   10746   10764       1   10722   10740   10761       1   10716   10701
   10719       1   10716   10737   10755       1   10704   10695   10707       1
   10704   10722   10743       1   10698   10710   10728       1   10698   10713
   10731       1   10692   10695   10707       1   10692   10701   10719       1
   10896   10887   10899       1   10896   10890   10902       1   10890   10881
   10893       1   10890   10896   10905       1   10887   10896   10905       1
   10881   10890   10902       1   10878   10887   10899       1   10875   10857
   10878       1   10866   10848   10869       1   10866   10854   10872       1
   10860   10845   10863       1   10860   10881   10893       1   10854   10866
   10884       1   10848   10830   10851       1   10848   10866   10884       1
   10842   10857   10875       1   10839   10821   10842       1   10833   10818
   10836       1   10833   10854   10872       1   10830   10848   10869       1
   10824   10809   10827       1   10824   10845   10863       1   10812   10803
   10815       1   10812   10830   10851       1   10806   10818   10836       1
   10806   10821   10839       1   10800   10803   10815       1   10800   10809
   10827       1   11004   10995   11007       1   11004   10998   11010       1
   10998   10989   11001       1   10998   11004   11013       1   10995   11004
   11013       1   10989   10998   11010       1   10986   10995   11007       1
   10983   10965   10986       1   10974   10956   10977       1   10974   10962
   10980       1   10968   10953   10971       1   10968   10989   11001       1
   10962   10974   10992       1   10956   10938   10959       1   10956   10974
   10992       1   10950   10965   10983       1   10947   10929   10950       1
   10941   10926   10944       1   10941   10962   10980       1   10938   10956
   10977       1   10932   10917   10935       1   10932   10953   10971       1
   10920   10911   10923       1   10920   10938   10959       1   10914   10926
   10944       1   10914   10929   10947       1   10908   10911   10923       1
   10908   10917   10935       1   11112   11103   11115       1   11112   11106
   11118       1   11106   11097   11109       1   11106   11112   11121       1
   11103   11112   11121       1   11097   11106   11118       1   11094   11103
   11115       1   11091   11073   11094       1   11082   11064   11085       1
   11082   11070   11088       1   11076   11061   11079       1   11076   11097
   11109       1   11070   11082   11100       1   11064   11046   11067       1
   11064   11082   11100       1   11058   11073   11091       1   11055   11037
   11058       1   11049   11034   11052       1   11049   11070   11088       1
   11046   11064   11085       1   11040   11025   11043       1   11040   11061
   11079       1   11028   11019   11031       1   11028   11046   11067       1
   11022   11034   11052       1   11022   11037   11055       1   11016   11019
   11031       1   11016   11025   11043       1   11220   11211   11223       1
   11220   11214   11226       1   11214   11205   11217       1   11214   11220
   11229       1   11211   11220   11229       1   11205   11214   11226       1
   11202   11211   11223       1   11199   11181   11202       1   11190   11172
   11193       1   11190   11178   11196       1   11184   11169   11187       1
   11184   11205   11217       1   11178   11190   11208       1   11172   11154
   11175       1   11172   11190   11208       1   11166   11181   11199       1
   11163   11145   11166       1   11157   11142   11160       1   11157   11178
   11196       1   11154   11172   11193       1   11148   11133   11151       1
   11148   11169   11187       1   11136   11127   11139       1   11136   11154
   11175       1   11130   11142   11160       1   11130   11145   11163       1
   11124   11127   11139       1   11124   11133   11151       1   11328   11319
   11331       1   11328   11322   11334       1   11322   11313   11325       1
   11322   11328   11337       1   11319   11328   11337       1   11313   11322
   11334       1   11310   11319   11331       1   11307   11289   11310       1
   11298   11280   11301       1   11298   11286   11304       1   11292   11277
   11295       1   11292   11313   11325       1   11286   11298   11316       1
   11280   11262   11283       1   11280   11298   11316       1   11274   11289
   11307       1   11271   11253   11274       1   11265   11250   11268       1
   11265   11286   11304       1   11262   11280   11301       1   11256   11241
   11259       1   11256   11277   11295       1   11244   11235   11247       1
   11244   11262   11283       1   11238   11250   11268       1   11238   11253
   11271       1   11232   11235   11247       1   11232   11241   11259       1
   11436   11427   11439       1   11436   11430   11442       1   11430   11421
   11433       1   11430   11436   11445       1   11427   11436   11445       1
   11421   11430   11442       1   11418   11427   11439       1   11415   11397
   11418       1   11406   11388   11409       1   11406   11394   11412       1
   11400   11385   11403       1   11400   11421   11433       1   11394   11406
   11424       1   11388   11370   11391       1   11388   11406   11424       1
   11382   11397   11415       1   11379   11361   11382       1   11373   11358
   11376       1   11373   11394   11412       1   11370   11388   11409       1
   11364   11349   11367       1   11364   11385   11403       1   11352   11343
   11355       1   11352   11370   11391       1   11346   11358   11376       1
   11346   11361   11379       1   11340   11343   11355       1   11340   11349
   11367       1   11544   11535   11547       1   11544   11538   11550       1
   11538   11529   11541       1   11538   11544   11553       1   11535   11544
   11553       1   11529   11538   11550       1   11526   11535   11547       1
   11523   11505   11526       1   11514   11496   11517       1   11514   11502
   11520       1   11508   11493   11511       1   11508   11529   11541       1
   11502   11514   11532       1   11496   11478   11499       1   11496   11514
   11532       1   11490   11505   11523       1   11487   11469   11490       1
   11481   11466   11484       1   11481   11502   11520       1   11478   11496
   11517       1   11472   11457   11475       1   11472   11493   11511       1
   11460   11451   11463       1   11460   11478   11499       1   11454   11466
   11484       1   11454   11469   11487       1   11448   11451   11463       1
   11448   11457   11475       1   11652   11643   11655       1   11652   11646
   11658       1   11646   11637   11649       1   11646   11652   11661       1
   11643   11652   11661       1   11637   11646   11658       1   11634   11643
   11655       1   11631   11613   11634       1   11622   11604   11625       1
   11622   11610   11628       1   11616   11601   11619       1   11616   11637
   11649       1   11610   11622   11640       1   11604   11586   11607       1
   11604   11622   11640       1   11598   11613   11631       1   11595   11577
   11598       1   11589   11574   11592       1   11589   11610   11628       1
   11586   11604   11625       1   11580   11565   11583       1   11580   11601
   11619       1   11568   11559   11571       1   11568   11586   11607       1
   11562   11574   11592       1   11562   11577   11595       1   11556   11559
   11571       1   11556   11565   11583       1   11760   11751   11763       1
   11760   11754   11766       1   11754   11745   11757       1   11754   11760
   11769       1   11751   11760   11769       1   11745   11754   11766       1
   11742   11751   11763       1   11739   11721   11742       1   11730   11712
   11733       1   11730   11718   11736       1   11724   11709   11727       1
   11724   11745   11757       1   11718   11730   11748       1   11712   11694
   11715       1   11712   11730   11748       1   11706   11721   11739       1
   11703   11685   11706       1   11697   11682   11700       1   11697   11718
   11736       1   11694   11712   11733       1   11688   11673   11691       1
   11688   11709   11727       1   11676   11667   11679       1   11676   11694
   11715       1   11670   11682   11700       1   11670   11685   11703       1
   11664   11667   11679       1   11664   11673   11691       1   11868   11859
   11871       1   11868   11862   11874       1   11862   11853   11865       1
   11862   11868   11877       1   11859   11868   11877       1   11853   11862
   11874       1   11850   11859   11871       1   11847   11829   11850       1
   11838   11820   11841       1   11838   11826   11844       1   11832   11817
   11835       1   11832   11853   11865       1   11826   11838   11856       1
   11820   11802   11823       1   11820   11838   11856       1   11814   11829
   11847       1   11811   11793   11814       1   11805   11790   11808       1
   11805   11826   11844       1   11802   11820   11841       1   11796   11781
   11799       1   11796   11817   11835       1   11784   11775   11787       1
   11784   11802   11823       1   11778   11790   11808       1   11778   11793
   11811       1   11772   11775   11787       1   11772   11781   11799       1
   11976   11967   11979       1   11976   11970   11982       1   11970   11961
   11973       1   11970   11976   11985       1   11967   11976   11985       1
   11961   11970   11982       1   11958   11967   11979       1   11955   11937
   11958       1   11946   11928   11949       1   11946   11934   11952       1
   11940   11925   11943       1   11940   11961   11973       1   11934   11946
   11964       1   11928   11910   11931       1   11928   11946   11964       1
   11922   11937   11955       1   11919   11901   11922       1   11913   11898
   11916       1   11913   11934   11952       1   11910   11928   11949       1
   11904   11889   11907       1   11904   11925   11943       1   11892   11883
   11895       1   11892   11910   11931       1   11886   11898   11916       1
   11886   11901   11919       1   11880   11883   11895       1   11880   11889
   11907       1   12084   12075   12087       1   12084   12078   12090       1
   12078   12069   12081       1   12078   12084   12093       1   12075   12084
   12093       1   12069   12078   12090       1   12066   12075   12087       1
   12063   12045   12066       1   12054   12036   12057       1   12054   12042
   12060       1   12048   12033   12051       1   12048   12069   12081       1
   12042   12054   12072       1   12036   12018   12039       1   12036   12054
   12072       1   12030   12045   12063       1   12027   12009   12030       1
   12021   12006   12024       1   12021   12042   12060       1   12018   12036
   12057       1   12012   11997   12015       1   12012   12033   12051       1
   12000   11991   12003       1   12000   12018   12039       1   11994   12006
   12024       1   11994   12009   12027       1   11988   11991   12003       1
   11988   11997   12015       1   12192   12183   12195       1   12192   12186
   12198       1   12186   12177   12189       1   12186   12192   12201       1
   12183   12192   12201       1   12177   12186   12198       1   12174   12183
   12195       1   12171   12153   12174       1   12162   12144   12165       1
   12162   12150   12168       1   12156   12141   12159       1   12156   12177
   12189       1   12150   12162   12180       1   12144   12126   12147       1
   12144   12162   12180       1   12138   12153   12171       1   12135   12117
   12138       1   12129   12114   12132       1   12129   12150   12168       1
   12126   12144   12165       1   12120   12105   12123       1   12120   12141
   12159       1   12108   12099   12111       1   12108   12126   12147       1
   12102   12114   12132       1   12102   12117   12135       1   12096   12099
   12111       1   12096   12105   12123       1   12300   12291   12303       1
   12300   12294   12306       1   12294   12285   12297       1   12294   12300
   12309       1   12291   12300   12309       1   12285   12294   12306       1
   12282   12291   12303       1   12279   12261   12282       1   12270   12252
   12273       1   12270   12258   12276       1   12264   12249   12267       1
   12264   12285   12297       1   12258   12270   12288       1   12252   12234
   12255       1   12252   12270   12288       1   12246   12261   12279       1
   12243   12225   12246       1   12237   12222   12240       1   12237   12258
   12276       1   12234   12252   12273       1   12228   12213   12231       1
   12228   12249   12267       1   12216   12207   12219       1   12216   12234
   12255       1   12210   12222   12240       1   12210   12225   12243       1
   12204   12207   12219       1   12204   12213   12231       1   12408   12399
   12411       1   12408   12402   12414       1   12402   12393   12405       1
   12402   12408   12417       1   12399   12408   12417       1   12393   12402
   12414       1   12390   12399   12411       1   12387   12369   12390       1
   12378   12360   12381       1   12378   12366   12384       1   12372   12357
   12375       1   12372   12393   12405       1   12366   12378   12396       1
   12360   12342   12363       1   12360   12378   12396       1   12354   12369
   12387       1   12351   12333   12354       1   12345   12330   12348       1
   12345   12366   12384       1   12342   12360   12381       1   12336   12321
   12339       1   12336   12357   12375       1   12324   12315   12327       1
   12324   12342   12363       1   12318   12330   12348       1   12318   12333
   12351       1   12312   12315   12327       1   12312   12321   12339       1
   12516   12507   12519       1   12516   12510   12522       1   12510   12501
   12513       1   12510   12516   12525       1   12507   12516   12525       1
   12501   12510   12522       1   12498   12507   12519       1   12495   12477
   12498       1   12486   12468   12489       1   12486   12474   12492       1
   12480   12465   12483       1   12480   12501   12513       1   12474   12486
   12504       1   12468   12450   12471       1   12468   12486   12504       1
   12462   12477   12495       1   12459   12441   12462       1   12453   12438
   12456       1   12453   12474   12492       1   12450   12468   12489       1
   12444   12429   12447       1   12444   12465   12483       1   12432   12423
   12435       1   12432   12450   12471       1   12426   12438   12456       1
   12426   12441   12459       1   12420   12423   12435       1   12420   12429
   12447       1   12624   12615   12627       1   12624   12618   12630       1
   12618   12609   12621       1   12618   12624   12633       1   12615   12624
   12633       1   12609   12618   12630       1   12606   12615   12627       1
   12603   12585   12606       1   12594   12576   12597       1   12594   12582
   12600       1   12588   12573   12591       1   12588   12609   12621       1
   12582   12594   12612       1   12576   12558   12579       1   12576   12594
   12612       1   12570   12585   12603       1   12567   12549   12570       1
   12561   12546   12564       1   12561   12582   12600       1   12558   12576
   12597       1   12552   12537   12555       1   12552   12573   12591       1
   12540   12531   12543       1   12540   12558   12579       1   12534   12546
   12564       1   12534   12549   12567       1   12528   12531   12543       1
   12528   12537   12555       1   12732   12723   12735       1   12732   12726
   12738       1   12726   12717   12729       1   12726   12732   12741       1
   12723   12732   12741       1   12717   12726   12738       1   12714   12723
   12735       1   12711   12693   12714       1   12702   12684   12705       1
   12702   12690   12708       1   12696   12681   12699       1   12696   12717
   12729       1   12690   12702   12720       1   12684   12666   12687       1
   12684   12702   12720       1   12678   12693   12711       1   12675   12657
   12678       1   12669   12654   12672       1   12669   12690   12708       1
   12666   12684   12705       1   12660   12645   12663       1   12660   12681
   12699       1   12648   12639   12651       1   12648   12666   12687       1
   12642   12654   12672       1   12642   12657   12675       1   12636   12639
   12651       1   12636   12645   12663       1   12840   12831   12843       1
   12840   12834   12846       1   12834   12825   12837       1   12834   12840
   12849       1   12831   12840   12849       1   12825   12834   12846       1
   12822   12831   12843       1   12819   12801   12822       1   12810   12792
   12813       1   12810   12798   12816       1   12804   12789   12807       1
   12804   12825   12837       1   12798   12810   12828       1   12792   12774
   12795       1   12792   12810   12828       1   12786   12801   12819       1
   12783   12765   12786       1   12777   12762   12780       1   12777   12798
   12816       1   12774   12792   12813       1   12768   12753   12771       1
   12768   12789   12807       1   12756   12747   12759       1   12756   12774
   12795       1   12750   12762   12780       1   12750   12765   12783       1
   12744   12747   12759       1   12744   12753   12771       1   12948   12939
   12951       1   12948   12942   12954       1   12942   12933   12945       1
   12942   12948   12957       1   12939   12948   12957       1   12933   12942
   12954       1   12930   12939   12951       1   12927   12909   12930       1
   12918   12900   12921       1   12918   12906   12924       1   12912   12897
   12915       1   12912   12933   12945       1   12906   12918   12936       1
   12900   12882   12903       1   12900   12918   12936       1   12894   12909
   12927       1   12891   12873   12894       1   12885   12870   12888       1
   12885   12906   12924       1   12882   12900   12921       1   12876   12861
   12879       1   12876   12897   12915       1   12864   12855   12867       1
   12864   12882   12903       1   12858   12870   12888       1   12858   12873
   12891       1   12852   12855   12867       1   12852   12861   12879       1
   13056   13047   13059       1   13056   13050   13062       1   13050   13041
   13053       1   13050   13056   13065       1   13047   13056   13065       1
   13041   13050   13062       1   13038   13047   13059       1   13035   13017
   13038       1   13026   13008   13029       1   13026   13014   13032       1
   13020   13005   13023       1   13020   13041   13053       1   13014   13026
   13044       1   13008   12990   13011       1   13008   13026   13044       1
   13002   13017   13035       1   12999   12981   13002       1   12993   12978
   12996       1   12993   13014   13032       1   12990   13008   13029       1
   12984   12969   12987       1   12984   13005   13023       1   12972   12963
   12975       1   12972   12990   13011       1   12966   12978   12996       1
   12966   12981   12999       1   12960   12963   12975       1   12960   12969
   12987       1   13164   13155   13167       1   13164   13158   13170       1
   13158   13149   13161       1   13158   13164   13173       1   13155   13164
   13173       1   13149   13158   13170       1   13146   13155   13167       1
   13143   13125   13146       1   13134   13116   13137       1   13134   13122
   13140       1   13128   13113   13131       1   13128   13149   13161       1
   13122   13134   13152       1   13116   13098   13119       1   13116   13134
   13152       1   13110   13125   13143       1   13107   13089   13110       1
   13101   13086   13104       1   13101   13122   13140       1   13098   13116
   13137       1   13092   13077   13095       1   13092   13113   13131       1
   13080   13071   13083       1   13080   13098   13119       1   13074   13086
   13104       1   13074   13089   13107       1   13068   13071   13083       1
   13068   13077   13095       1   13272   13263   13275       1   13272   13266
   13278       1   13266   13257   13269       1   13266   13272   13281       1
   13263   13272   13281       1   13257   13266   13278       1   13254   13263
   13275       1   13251   13233   13254       1   13242   13224   13245       1
   13242   13230   13248       1   13236   13221   13239       1   13236   13257
   13269       1   13230   13242   13260       1   13224   13206   13227       1
   13224   13242   13260       1   13218   13233   13251       1   13215   13197
   13218       1   13209   13194   13212       1   13209   13230   13248       1
   13206   13224   13245       1   13200   13185   13203       1   13200   13221
   13239       1   13188   13179   13191       1   13188   13206   13227       1
   13182   13194   13212       1   13182   13197   13215       1   13176   13179
   13191       1   13176   13185   13203       1   13380   13371   13383       1
   13380   13374   13386       1   13374   13365   13377       1   13374   13380
   13389       1   13371   13380   13389       1   13365   13374   13386       1
   13362   13371   13383       1   13359   13341   13362       1   13350   13332
   13353       1   13350   13338   13356       1   13344   13329   13347       1
   13344   13365   13377       1   13338   13350   13368       1   13332   13314
   13335       1   13332   13350   13368       1   13326   13341   13359       1
   13323   13305   13326       1   13317   13302   13320       1   13317   13338
   13356       1   13314   13332   13353       1   13308   13293   13311       1
   13308   13329   13347       1   13296   13287   13299       1   13296   13314
   13335       1   13290   13302   13320       1   13290   13305   13323       1
   13284   13287   13299       1   13284   13293   13311       1   13488   13479
   13491       1   13488   13482   13494       1   13482   13473   13485       1
   13482   13488   13497       1   13479   13488   13497       1   13473   13482
   13494       1   13470   13479   13491       1   13467   13449   13470       1
   13458   13440   13461       1   13458   13446   13464       1   13452   13437
   13455       1   13452   13473   13485       1   13446   13458   13476       1
   13440   13422   13443       1   13440   13458   13476       1   13434   13449
   13467       1   13431   13413   13434       1   13425   13410   13428       1
   13425   13446   13464       1   13422   13440   13461       1   13416   13401
   13419       1   13416   13437   13455       1   13404   13395   13407       1
   13404   13422   13443       1   13398   13410   13428       1   13398   13413
   13431       1   13392   13395   13407       1   13392   13401   13419       1
   13596   13587   13599       1   13596   13590   13602       1   13590   13581
   13593       1   13590   13596   13605       1   13587   13596   13605       1
   13581   13590   13602       1   13578   13587   13599       1   13575   13557
   13578       1   13566   13548   13569       1   13566   13554   13572       1
   13560   13545   13563       1   13560   13581   13593       1   13554   13566
   13584       1   13548   13530   13551       1   13548   13566   13584       1
   13542   13557   13575       1   13539   13521   13542       1   13533   13518
   13536       1   13533   13554   13572       1   13530   13548   13569       1
   13524   13509   13527       1   13524   13545   13563       1   13512   13503
   13515       1   13512   13530   13551       1   13506   13518   13536       1
   13506   13521   13539       1   13500   13503   13515       1   13500   13509
   13527       1   13704   13695   13707       1   13704   13698   13710       1
   13698   13689   13701       1   13698   13704   13713       1   13695   13704
   13713       1   13689   13698   13710       1   13686   13695   13707       1
   13683   13665   13686       1   13674   13656   13677       1   13674   13662
   13680       1   13668   13653   13671       1   13668   13689   13701       1
   13662   13674   13692       1   13656   13638   13659       1   13656   13674
   13692       1   13650   13665   13683       1   13647   13629   13650       1
   13641   13626   13644       1   13641   13662   13680       1   13638   13656
   13677       1   13632   13617   13635       1   13632   13653   13671       1
   13620   13611   13623       1   13620   13638   13659       1   13614   13626
   13644       1   13614   13629   13647       1   13608   13611   13623       1
   13608   13617   13635       1   13812   13803   13815       1   13812   13806
   13818       1   13806   13797   13809       1   13806   13812   13821       1
   13803   13812   13821       1   13797   13806   13818       1   13794   13803
   13815       1   13791   13773   13794       1   13782   13764   13785       1
   13782   13770   13788       1   13776   13761   13779       1   13776   13797
   13809       1   13770   13782   13800       1   13764   13746   13767       1
   13764   13782   13800       1   13758   13773   13791       1   13755   13737
   13758       1   13749   13734   13752       1   13749   13770   13788       1
   13746   13764   13785       1   13740   13725   13743       1   13740   13761
   13779       1   13728   13719   13731       1   13728   13746   13767       1
   13722   13734   13752       1   13722   13737   13755       1   13716   13719
   13731       1   13716   13725   13743       1   13920   13911   13923       1
   13920   13914   13926       1   13914   13905   13917       1   13914   13920
   13929       1   13911   13920   13929       1   13905   13914   13926       1
   13902   13911   13923       1   13899   13881   13902       1   13890   13872
   13893       1   13890   13878   13896       1   13884   13869   13887       1
   13884   13905   13917       1   13878   13890   13908       1   13872   13854
   13875       1   13872   13890   13908       1   13866   13881   13899       1
   13863   13845   13866       1   13857   13842   13860       1   13857   13878
   13896       1   13854   13872   13893       1   13848   13833   13851       1
   13848   13869   13887       1   13836   13827   13839       1   13836   13854
   13875       1   13830   13842   13860       1   13830   13845   13863       1
   13824   13827   13839       1   13824   13833   13851       1   14028   14019
   14031       1   14028   14022   14034       1   14022   14013   14025       1
   14022   14028   14037       1   14019   14028   14037       1   14013   14022
   14034       1   14010   14019   14031       1   14007   13989   14010       1
   13998   13980   14001       1   13998   13986   14004       1   13992   13977
   13995       1   13992   14013   14025       1   13986   13998   14016       1
   13980   13962   13983       1   13980   13998   14016       1   13974   13989
   14007       1   13971   13953   13974       1   13965   13950   13968       1
   13965   13986   14004       1   13962   13980   14001       1   13956   13941
   13959       1   13956   13977   13995       1   13944   13935   13947       1
   13944   13962   13983       1   13938   13950   13968       1   13938   13953
   13971       1   13932   13935   13947       1   13932   13941   13959       1
   14136   14127   14139       1   14136   14130   14142       1   14130   14121
   14133       1   14130   14136   14145       1   14127   14136   14145       1
   14121   14130   14142       1   14118   14127   14139       1   14115   14097
   14118       1   14106   14088   14109       1   14106   14094   14112       1
   14100   14085   14103       1   14100   14121   14133       1   14094   14106
   14124       1   14088   14070   14091       1   14088   14106   14124       1
   14082   14097   14115       1   14079   14061   14082       1   14073   14058
   14076       1   14073   14094   14112       1   14070   14088   14109       1
   14064   14049   14067       1   14064   14085   14103       1   14052   14043
   14055       1   14052   14070   14091       1   14046   14058   14076       1
   14046   14061   14079       1   14040   14043   14055       1   14040   14049
   14067       1   14244   14235   14247       1   14244   14238   14250       1
   14238   14229   14241       1   14238   14244   14253       1   14235   14244
   14253       1   14229   14238   14250       1   14226   14235   14247       1
   14223   14205   14226       1   14214   14196   14217       1   14214   14202
   14220       1   14208   14193   14211       1   14208   14229   14241       1
   14202   14214   14232       1   14196   14178   14199       1   14196   14214
   14232       1   14190   14205   14223       1   14187   14169   14190       1
   14181   14166   14184       1   14181   14202   14220       1   14178   14196
   14217       1   14172   14157   14175       1   14172   14193   14211       1
   14160   14151   14163       1   14160   14178   14199       1   14154   14166
   14184       1   14154   14169   14187       1   14148   14151   14163       1
   14148   14157   14175       1   14352   14343   14355       1   14352   14346
   14358       1   14346   14337   14349       1   14346   14352   14361       1
   14343   14352   14361       1   14337   14346   14358       1   14334   14343
   14355       1   14331   14313   14334       1   14322   14304   14325       1
   14322   14310   14328       1   14316   14301   14319       1   14316   14337
   14349       1   14310   14322   14340       1   14304   14286   14307       1
   14304   14322   14340       1   14298   14313   14331       1   14295   14277
   14298       1   14289   14274   14292       1   14289   14310   14328       1
   14286   14304   14325       1   14280   14265   14283       1   14280   14301
   14319       1   14268   14259   14271       1   14268   14286   14307       1
   14262   14274   14292       1   14262   14277   14295       1   14256   14259
   14271       1   14256   14265   14283       1   14460   14451   14463       1
   14460   14454   14466       1   14454   14445   14457       1   14454   14460
   14469       1   14451   14460   14469       1   14445   14454   14466       1
   14442   14451   14463       1   14439   14421   14442       1   14430   14412
   14433       1   14430   14418   14436       1   14424   14409   14427       1
   14424   14445   14457       1   14418   14430   14448       1   14412   14394
   14415       1   14412   14430   14448       1   14406   14421   14439       1
   14403   14385   14406       1   14397   14382   14400       1   14397   14418
   14436       1   14394   14412   14433       1   14388   14373   14391       1
   14388   14409   14427       1   14376   14367   14379       1   14376   14394
   14415       1   14370   14382   14400       1   14370   14385   14403       1
   14364   14367   14379       1   14364   14373   14391       1   14568   14559
   14571       1   14568   14562   14574       1   14562   14553   14565       1
   14562   14568   14577       1   14559   14568   14577       1   14553   14562
   14574       1   14550   14559   14571       1   14547   14529   14550       1
   14538   14520   14541       1   14538   14526   14544       1   14532   14517
   14535       1   14532   14553   14565       1   14526   14538   14556       1
   14520   14502   14523       1   14520   14538   14556       1   14514   14529
   14547       1   14511   14493   14514       1   14505   14490   14508       1
   14505   14526   14544       1   14502   14520   14541       1   14496   14481
   14499       1   14496   14517   14535       1   14484   14475   14487       1
   14484   14502   14523       1   14478   14490   14508       1   14478   14493
   14511       1   14472   14475   14487       1   14472   14481   14499       1
   14676   14667   14679       1   14676   14670   14682       1   14670   14661
   14673       1   14670   14676   14685       1   14667   14676   14685       1
   14661   14670   14682       1   14658   14667   14679       1   14655   14637
   14658       1   14646   14628   14649       1   14646   14634   14652       1
   14640   14625   14643       1   14640   14661   14673       1   14634   14646
   14664       1   14628   14610   14631       1   14628   14646   14664       1
   14622   14637   14655       1   14619   14601   14622       1   14613   14598
   14616       1   14613   14634   14652       1   14610   14628   14649       1
   14604   14589   14607       1   14604   14625   14643       1   14592   14583
   14595       1   14592   14610   14631       1   14586   14598   14616       1
   14586   14601   14619       1   14580   14583   14595       1   14580   14589
   14607       1   14784   14775   14787       1   14784   14778   14790       1
   14778   14769   14781       1   14778   14784   14793       1   14775   14784
   14793       1   14769   14778   14790       1   14766   14775   14787       1
   14763   14745   14766       1   14754   14736   14757       1   14754   14742
   14760       1   14748   14733   14751       1   14748   14769   14781       1
   14742   14754   14772       1   14736   14718   14739       1   14736   14754
   14772       1   14730   14745   14763       1   14727   14709   14730       1
   14721   14706   14724       1   14721   14742   14760       1   14718   14736
   14757       1   14712   14697   14715       1   14712   14733   14751       1
   14700   14691   14703       1   14700   14718   14739       1   14694   14706
   14724       1   14694   14709   14727       1   14688   14691   14703       1
   14688   14697   14715       1   14892   14883   14895       1   14892   14886
   14898       1   14886   14877   14889       1   14886   14892   14901       1
   14883   14892   14901       1   14877   14886   14898       1   14874   14883
   14895       1   14871   14853   14874       1   14862   14844   14865       1
   14862   14850   14868       1   14856   14841   14859       1   14856   14877
   14889       1   14850   14862   14880       1   14844   14826   14847       1
   14844   14862   14880       1   14838   14853   14871       1   14835   14817
   14838       1   14829   14814   14832       1   14829   14850   14868       1
   14826   14844   14865       1   14820   14805   14823       1   14820   14841
   14859       1   14808   14799   14811       1   14808   14826   14847       1
   14802   14814   14832       1   14802   14817   14835       1   14796   14799
   14811       1   14796   14805   14823       1   15000   14991   15003       1
   15000   14994   15006       1   14994   14985   14997       1   14994   15000
   15009       1   14991   15000   15009       1   14985   14994   15006       1
   14982   14991   15003       1   14979   14961   14982       1   14970   14952
   14973       1   14970   14958   14976       1   14964   14949   14967       1
   14964   14985   14997       1   14958   14970   14988       1   14952   14934
   14955       1   14952   14970   14988       1   14946   14961   14979       1
   14943   14925   14946       1   14937   14922   14940       1   14937   14958
   14976       1   14934   14952   14973       1   14928   14913   14931       1
   14928   14949   14967       1   14916   14907   14919       1   14916   14934
   14955       1   14910   14922   14940       1   14910   14925   14943       1
   14904   14907   14919       1   14904   14913   14931       1   15108   15099
   15111       1   15108   15102   15114       1   15102   15093   15105       1
   15102   15108   15117       1   15099   15108   15117       1   15093   15102
   15114       1   15090   15099   15111       1   15087   15069   15090       1
   15078   15060   15081       1   15078   15066   15084       1   15072   15057
   15075       1   15072   15093   15105       1   15066   15078   15096       1
   15060   15042   15063       1   15060   15078   15096       1   15054   15069
   15087       1   15051   15033   15054       1   15045   15030   15048       1
   15045   15066   15084       1   15042   15060   15081       1   15036   15021
   15039       1   15036   15057   15075       1   15024   15015   15027       1
   15024   15042   15063       1   15018   15030   15048       1   15018   15033
   15051       1   15012   15015   15027       1   15012   15021   15039       1
   15216   15207   15219       1   15216   15210   15222       1   15210   15201
   15213       1   15210   15216   15225       1   15207   15216   15225       1
   15201   15210   15222       1   15198   15207   15219       1   15195   15177
   15198       1   15186   15168   15189       1   15186   15174   15192       1
   15180   15165   15183       1   15180   15201   15213       1   15174   15186
   15204       1   15168   15150   15171       1   15168   15186   15204       1
   15162   15177   15195       1   15159   15141   15162       1   15153   15138
   15156       1   15153   15174   15192       1   15150   15168   15189       1
   15144   15129   15147       1   15144   15165   15183       1   15132   15123
   15135       1   15132   15150   15171       1   15126   15138   15156       1
   15126   15141   15159       1   15120   15123   15135       1   15120   15129
   15147       1   15324   15315   15327       1   15324   15318   15330       1
   15318   15309   15321       1   15318   15324   15333       1   15315   15324
   15333       1   15309   15318   15330       1   15306   15315   15327       1
   15303   15285   15306       1   15294   15276   15297       1   15294   15282
   15300       1   15288   15273   15291       1   15288   15309   15321       1
   15282   15294   15312       1   15276   15258   15279       1   15276   15294
   15312       1   15270   15285   15303       1   15267   15249   15270       1
   15261   15246   15264       1   15261   15282   15300       1   15258   15276
   15297       1   15252   15237   15255       1   15252   15273   15291       1
   15240   15231   15243       1   15240   15258   15279       1   15234   15246
   15264       1   15234   15249   15267       1   15228   15231   15243       1
   15228   15237   15255       1   15432   15423   15435       1   15432   15426
   15438       1   15426   15417   15429       1   15426   15432   15441       1
   15423   15432   15441       1   15417   15426   15438       1   15414   15423
   15435       1   15411   15393   15414       1   15402   15384   15405       1
   15402   15390   15408       1   15396   15381   15399       1   15396   15417
   15429       1   15390   15402   15420       1   15384   15366   15387       1
   15384   15402   15420       1   15378   15393   15411       1   15375   15357
   15378       1   15369   15354   15372       1   15369   15390   15408       1
   15366   15384   15405       1   15360   15345   15363       1   15360   15381
   15399       1   15348   15339   15351       1   15348   15366   15387       1
   15342   15354   15372       1   15342   15357   15375       1   15336   15339
   15351       1   15336   15345   15363       1   15540   15531   15543       1
   15540   15534   15546       1   15534   15525   15537       1   15534   15540
   15549       1   15531   15540   15549       1   15525   15534   15546       1
   15522   15531   15543       1   15519   15501   15522       1   15510   15492
   15513       1   15510   15498   15516       1   15504   15489   15507       1
   15504   15525   15537       1   15498   15510   15528       1   15492   15474
   15495       1   15492   15510   15528       1   15486   15501   15519       1
   15483   15465   15486       1   15477   15462   15480       1   15477   15498
   15516       1   15474   15492   15513       1   15468   15453   15471       1
   15468   15489   15507       1   15456   15447   15459       1   15456   15474
   15495       1   15450   15462   15480       1   15450   15465   15483       1
   15444   15447   15459       1   15444   15453   15471       1   15648   15639
   15651       1   15648   15642   15654       1   15642   15633   15645       1
   15642   15648   15657       1   15639   15648   15657       1   15633   15642
   15654       1   15630   15639   15651       1   15627   15609   15630       1
   15618   15600   15621       1   15618   15606   15624       1   15612   15597
   15615       1   15612   15633   15645       1   15606   15618   15636       1
   15600   15582   15603       1   15600   15618   15636       1   15594   15609
   15627       1   15591   15573   15594       1   15585   15570   15588       1
   15585   15606   15624       1   15582   15600   15621       1   15576   15561
   15579       1   15576   15597   15615       1   15564   15555   15567       1
   15564   15582   15603       1   15558   15570   15588       1   15558   15573
   15591       1   15552   15555   15567       1   15552   15561   15579       1
   15756   15747   15759       1   15756   15750   15762       1   15750   15741
   15753       1   15750   15756   15765       1   15747   15756   15765       1
   15741   15750   15762       1   15738   15747   15759       1   15735   15717
   15738       1   15726   15708   15729       1   15726   15714   15732       1
   15720   15705   15723       1   15720   15741   15753       1   15714   15726
   15744       1   15708   15690   15711       1   15708   15726   15744       1
   15702   15717   15735       1   15699   15681   15702       1   15693   15678
   15696       1   15693   15714   15732       1   15690   15708   15729       1
   15684   15669   15687       1   15684   15705   15723       1   15672   15663
   15675       1   15672   15690   15711       1   15666   15678   15696       1
   15666   15681   15699       1   15660   15663   15675       1   15660   15669
   15687       1   15864   15855   15867       1   15864   15858   15870       1
   15858   15849   15861       1   15858   15864   15873       1   15855   15864
   15873       1   15849   15858   15870       1   15846   15855   15867       1
   15843   15825   15846       1   15834   15816   15837       1   15834   15822
   15840       1   15828   15813   15831       1   15828   15849   15861       1
   15822   15834   15852       1   15816   15798   15819       1   15816   15834
   15852       1   15810   15825   15843       1   15807   15789   15810       1
   15801   15786   15804       1   15801   15822   15840       1   15798   15816
   15837       1   15792   15777   15795       1   15792   15813   15831       1
   15780   15771   15783       1   15780   15798   15819       1   15774   15786
   15804       1   15774   15789   15807       1   15768   15771   15783       1
   15768   15777   15795       1   15972   15963   15975       1   15972   15966
   15978       1   15966   15957   15969       1   15966   15972   15981       1
   15963   15972   15981       1   15957   15966   15978       1   15954   15963
   15975       1   15951   15933   15954       1   15942   15924   15945       1
   15942   15930   15948       1   15936   15921   15939       1   15936   15957
   15969       1   15930   15942   15960       1   15924   15906   15927       1
   15924   15942   15960       1   15918   15933   15951       1   15915   15897
   15918       1   15909   15894   15912       1   15909   15930   15948       1
   15906   15924   15945       1   15900   15885   15903       1   15900   15921
   15939       1   15888   15879   15891       1   15888   15906   15927       1
   15882   15894   15912       1   15882   15897   15915       1   15876   15879
   15891       1   15876   15885   15903       1   16080   16071   16083       1
   16080   16074   16086       1   16074   16065   16077       1   16074   16080
   16089       1   16071   16080   16089       1   16065   16074   16086       1
   16062   16071   16083       1   16059   16041   16062       1   16050   16032
   16053       1   16050   16038   16056       1   16044   16029   16047       1
   16044   16065   16077       1   16038   16050   16068       1   16032   16014
   16035       1   16032   16050   16068       1   16026   16041   16059       1
   16023   16005   16026       1   16017   16002   16020       1   16017   16038
   16056       1   16014   16032   16053       1   16008   15993   16011       1
   16008   16029   16047       1   15996   15987   15999       1   15996   16014
   16035       1   15990   16002   16020       1   15990   16005   16023       1
   15984   15987   15999       1   15984   15993   16011       1   16188   16179
   16191       1   16188   16182   16194       1   16182   16173   16185       1
   16182   16188   16197       1   16179   16188   16197       1   16173   16182
   16194       1   16170   16179   16191       1   16167   16149   16170       1
   16158   16140   16161       1   16158   16146   16164       1   16152   16137
   16155       1   16152   16173   16185       1   16146   16158   16176       1
   16140   16122   16143       1   16140   16158   16176       1   16134   16149
   16167       1   16131   16113   16134       1   16125   16110   16128       1
   16125   16146   16164       1   16122   16140   16161       1   16116   16101
   16119       1   16116   16137   16155       1   16104   16095   16107       1
   16104   16122   16143       1   16098   16110   16128       1   16098   16113
   16131       1   16092   16095   16107       1   16092   16101   16119       1
   16296   16287   16299       1   16296   16290   16302       1   16290   16281
   16293       1   16290   16296   16305       1   16287   16296   16305       1
   16281   16290   16302       1   16278   16287   16299       1   16275   16257
   16278       1   16266   16248   16269       1   16266   16254   16272       1
   16260   16245   16263       1   16260   16281   16293       1   16254   16266
   16284       1   16248   16230   16251       1   16248   16266   16284       1
   16242   16257   16275       1   16239   16221   16242       1   16233   16218
   16236       1   16233   16254   16272       1   16230   16248   16269       1
   16224   16209   16227       1   16224   16245   16263       1   16212   16203
   16215       1   16212   16230   16251       1   16206   16218   16236       1
   16206   16221   16239       1   16200   16203   16215       1   16200   16209
   16227       1   16404   16395   16407       1   16404   16398   16410       1
   16398   16389   16401       1   16398   16404   16413       1   16395   16404
   16413       1   16389   16398   16410       1   16386   16395   16407       1
   16383   16365   16386       1   16374   16356   16377       1   16374   16362
   16380       1   16368   16353   16371       1   16368   16389   16401       1
   16362   16374   16392       1   16356   16338   16359       1   16356   16374
   16392       1   16350   16365   16383       1   16347   16329   16350       1
   16341   16326   16344       1   16341   16362   16380       1   16338   16356
   16377       1   16332   16317   16335       1   16332   16353   16371       1
   16320   16311   16323       1   16320   16338   16359       1   16314   16326
   16344       1   16314   16329   16347       1   16308   16311   16323       1
   16308   16317   16335       1   16512   16503   16515       1   16512   16506
   16518       1   16506   16497   16509       1   16506   16512   16521       1
   16503   16512   16521       1   16497   16506   16518       1   16494   16503
   16515       1   16491   16473   16494       1   16482   16464   16485       1
   16482   16470   16488       1   16476   16461   16479       1   16476   16497
   16509       1   16470   16482   16500       1   16464   16446   16467       1
   16464   16482   16500       1   16458   16473   16491       1   16455   16437
   16458       1   16449   16434   16452       1   16449   16470   16488       1
   16446   16464   16485       1   16440   16425   16443       1   16440   16461
   16479       1   16428   16419   16431       1   16428   16446   16467       1
   16422   16434   16452       1   16422   16437   16455       1   16416   16419
   16431       1   16416   16425   16443       1   16620   16611   16623       1
   16620   16614   16626       1   16614   16605   16617       1   16614   16620
   16629       1   16611   16620   16629       1   16605   16614   16626       1
   16602   16611   16623       1   16599   16581   16602       1   16590   16572
   16593       1   16590   16578   16596       1   16584   16569   16587       1
   16584   16605   16617       1   16578   16590   16608       1   16572   16554
   16575       1   16572   16590   16608       1   16566   16581   16599       1
   16563   16545   16566       1   16557   16542   16560       1   16557   16578
   16596       1   16554   16572   16593       1   16548   16533   16551       1
   16548   16569   16587       1   16536   16527   16539       1   16536   16554
   16575       1   16530   16542   16560       1   16530   16545   16563       1
   16524   16527   16539       1   16524   16533   16551       1   16728   16719
   16731       1   16728   16722   16734       1   16722   16713   16725       1
   16722   16728   16737       1   16719   16728   16737       1   16713   16722
   16734       1   16710   16719   16731       1   16707   16689   16710       1
   16698   16680   16701       1   16698   16686   16704       1   16692   16677
   16695       1   16692   16713   16725       1   16686   16698   16716       1
   16680   16662   16683       1   16680   16698   16716       1   16674   16689
   16707       1   16671   16653   16674       1   16665   16650   16668       1
   16665   16686   16704       1   16662   16680   16701       1   16656   16641
   16659       1   16656   16677   16695       1   16644   16635   16647       1
   16644   16662   16683       1   16638   16650   16668       1   16638   16653
   16671       1   16632   16635   16647       1   16632   16641   16659       1
   16836   16827   16839       1   16836   16830   16842       1   16830   16821
   16833       1   16830   16836   16845       1   16827   16836   16845       1
   16821   16830   16842       1   16818   16827   16839       1   16815   16797
   16818       1   16806   16788   16809       1   16806   16794   16812       1
   16800   16785   16803       1   16800   16821   16833       1   16794   16806
   16824       1   16788   16770   16791       1   16788   16806   16824       1
   16782   16797   16815       1   16779   16761   16782       1   16773   16758
   16776       1   16773   16794   16812       1   16770   16788   16809       1
   16764   16749   16767       1   16764   16785   16803       1   16752   16743
   16755       1   16752   16770   16791       1   16746   16758   16776       1
   16746   16761   16779       1   16740   16743   16755       1   16740   16749
   16767       1   16944   16935   16947       1   16944   16938   16950       1
   16938   16929   16941       1   16938   16944   16953       1   16935   16944
   16953       1   16929   16938   16950       1   16926   16935   16947       1
   16923   16905   16926       1   16914   16896   16917       1   16914   16902
   16920       1   16908   16893   16911       1   16908   16929   16941       1
   16902   16914   16932       1   16896   16878   16899       1   16896   16914
   16932       1   16890   16905   16923       1   16887   16869   16890       1
   16881   16866   16884       1   16881   16902   16920       1   16878   16896
   16917       1   16872   16857   16875       1   16872   16893   16911       1
   16860   16851   16863       1   16860   16878   16899       1   16854   16866
   16884       1   16854   16869   16887       1   16848   16851   16863       1
   16848   16857   16875       1   17052   17043   17055       1   17052   17046
   17058       1   17046   17037   17049       1   17046   17052   17061       1
   17043   17052   17061       1   17037   17046   17058       1   17034   17043
   17055       1   17031   17013   17034       1   17022   17004   17025       1
   17022   17010   17028       1   17016   17001   17019       1   17016   17037
   17049       1   17010   17022   17040       1   17004   16986   17007       1
   17004   17022   17040       1   16998   17013   17031       1   16995   16977
   16998       1   16989   16974   16992       1   16989   17010   17028       1
   16986   17004   17025       1   16980   16965   16983       1   16980   17001
   17019       1   16968   16959   16971       1   16968   16986   17007       1
   16962   16974   16992       1   16962   16977   16995       1   16956   16959
   16971       1   16956   16965   16983       1   17160   17151   17163       1
   17160   17154   17166       1   17154   17145   17157       1   17154   17160
   17169       1   17151   17160   17169       1   17145   17154   17166       1
   17142   17151   17163       1   17139   17121   17142       1   17130   17112
   17133       1   17130   17118   17136       1   17124   17109   17127       1
   17124   17145   17157       1   17118   17130   17148       1   17112   17094
   17115       1   17112   17130   17148       1   17106   17121   17139       1
   17103   17085   17106       1   17097   17082   17100       1   17097   17118
   17136       1   17094   17112   17133       1   17088   17073   17091       1
   17088   17109   17127       1   17076   17067   17079       1   17076   17094
   17115       1   17070   17082   17100       1   17070   17085   17103       1
   17064   17067   17079       1   17064   17073   17091       1   17268   17259
   17271       1   17268   17262   17274       1   17262   17253   17265       1
   17262   17268   17277       1   17259   17268   17277       1   17253   17262
   17274       1   17250   17259   17271       1   17247   17229   17250       1
   17238   17220   17241       1   17238   17226   17244       1   17232   17217
   17235       1   17232   17253   17265       1   17226   17238   17256       1
   17220   17202   17223       1   17220   17238   17256       1   17214   17229
   17247       1   17211   17193   17214       1   17205   17190   17208       1
   17205   17226   17244       1   17202   17220   17241       1   17196   17181
   17199       1   17196   17217   17235       1   17184   17175   17187       1
   17184   17202   17223       1   17178   17190   17208       1   17178   17193
   17211       1   17172   17175   17187       1   17172   17181   17199       1
   17376   17367   17379       1   17376   17370   17382       1   17370   17361
   17373       1   17370   17376   17385       1   17367   17376   17385       1
   17361   17370   17382       1   17358   17367   17379       1   17355   17337
   17358       1   17346   17328   17349       1   17346   17334   17352       1
   17340   17325   17343       1   17340   17361   17373       1   17334   17346
   17364       1   17328   17310   17331       1   17328   17346   17364       1
   17322   17337   17355       1   17319   17301   17322       1   17313   17298
   17316       1   17313   17334   17352       1   17310   17328   17349       1
   17304   17289   17307       1   17304   17325   17343       1   17292   17283
   17295       1   17292   17310   17331       1   17286   17298   17316       1
   17286   17301   17319       1   17280   17283   17295       1   17280   17289
   17307       1   17484   17475   17487       1   17484   17478   17490       1
   17478   17469   17481       1   17478   17484   17493       1   17475   17484
   17493       1   17469   17478   17490       1   17466   17475   17487       1
   17463   17445   17466       1   17454   17436   17457       1   17454   17442
   17460       1   17448   17433   17451       1   17448   17469   17481       1
   17442   17454   17472       1   17436   17418   17439       1   17436   17454
   17472       1   17430   17445   17463       1   17427   17409   17430       1
   17421   17406   17424       1   17421   17442   17460       1   17418   17436
   17457       1   17412   17397   17415       1   17412   17433   17451       1
   17400   17391   17403       1   17400   17418   17439       1   17394   17406
   17424       1   17394   17409   17427       1   17388   17391   17403       1
   17388   17397   17415       1   17592   17583   17595       1   17592   17586
   17598       1   17586   17577   17589       1   17586   17592   17601       1
   17583   17592   17601       1   17577   17586   17598       1   17574   17583
   17595       1   17571   17553   17574       1   17562   17544   17565       1
   17562   17550   17568       1   17556   17541   17559       1   17556   17577
   17589       1   17550   17562   17580       1   17544   17526   17547       1
   17544   17562   17580       1   17538   17553   17571       1   17535   17517
   17538       1   17529   17514   17532       1   17529   17550   17568       1
   17526   17544   17565       1   17520   17505   17523       1   17520   17541
   17559       1   17508   17499   17511       1   17508   17526   17547       1
   17502   17514   17532       1   17502   17517   17535       1   17496   17499
   17511       1   17496   17505   17523       1   17700   17691   17703       1
   17700   17694   17706       1   17694   17685   17697       1   17694   17700
   17709       1   17691   17700   17709       1   17685   17694   17706       1
   17682   17691   17703       1   17679   17661   17682       1   17670   17652
   17673       1   17670   17658   17676       1   17664   17649   17667       1
   17664   17685   17697       1   17658   17670   17688       1   17652   17634
   17655       1   17652   17670   17688       1   17646   17661   17679       1
   17643   17625   17646       1   17637   17622   17640       1   17637   17658
   17676       1   17634   17652   17673       1   17628   17613   17631       1
   17628   17649   17667       1   17616   17607   17619       1   17616   17634
   17655       1   17610   17622   17640       1   17610   17625   17643       1
   17604   17607   17619       1   17604   17613   17631       1   17808   17799
   17811       1   17808   17802   17814       1   17802   17793   17805       1
   17802   17808   17817       1   17799   17808   17817       1   17793   17802
   17814       1   17790   17799   17811       1   17787   17769   17790       1
   17778   17760   17781       1   17778   17766   17784       1   17772   17757
   17775       1   17772   17793   17805       1   17766   17778   17796       1
   17760   17742   17763       1   17760   17778   17796       1   17754   17769
   17787       1   17751   17733   17754       1   17745   17730   17748       1
   17745   17766   17784       1   17742   17760   17781       1   17736   17721
   17739       1   17736   17757   17775       1   17724   17715   17727       1
   17724   17742   17763       1   17718   17730   17748       1   17718   17733
   17751       1   17712   17715   17727       1   17712   17721   17739       1
   17916   17907   17919       1   17916   17910   17922       1   17910   17901
   17913       1   17910   17916   17925       1   17907   17916   17925       1
   17901   17910   17922       1   17898   17907   17919       1   17895   17877
   17898       1   17886   17868   17889       1   17886   17874   17892       1
   17880   17865   17883       1   17880   17901   17913       1   17874   17886
   17904       1   17868   17850   17871       1   17868   17886   17904       1
   17862   17877   17895       1   17859   17841   17862       1   17853   17838
   17856       1   17853   17874   17892       1   17850   17868   17889       1
   17844   17829   17847       1   17844   17865   17883       1   17832   17823
   17835       1   17832   17850   17871       1   17826   17838   17856       1
   17826   17841   17859       1   17820   17823   17835       1   17820   17829
   17847       1   18024   18015   18027       1   18024   18018   18030       1
   18018   18009   18021       1   18018   18024   18033       1   18015   18024
   18033       1   18009   18018   18030       1   18006   18015   18027       1
   18003   17985   18006       1   17994   17976   17997       1   17994   17982
   18000       1   17988   17973   17991       1   17988   18009   18021       1
   17982   17994   18012       1   17976   17958   17979       1   17976   17994
   18012       1   17970   17985   18003       1   17967   17949   17970       1
   17961   17946   17964       1   17961   17982   18000       1   17958   17976
   17997       1   17952   17937   17955       1   17952   17973   17991       1
   17940   17931   17943       1   17940   17958   17979       1   17934   17946
   17964       1   17934   17949   17967       1   17928   17931   17943       1
   17928   17937   17955       1   18132   18123   18135       1   18132   18126
   18138       1   18126   18117   18129       1   18126   18132   18141       1
   18123   18132   18141       1   18117   18126   18138       1   18114   18123
   18135       1   18111   18093   18114       1   18102   18084   18105       1
   18102   18090   18108       1   18096   18081   18099       1   18096   18117
   18129       1   18090   18102   18120       1   18084   18066   18087       1
   18084   18102   18120       1   18078   18093   18111       1   18075   18057
   18078       1   18069   18054   18072       1   18069   18090   18108       1
   18066   18084   18105       1   18060   18045   18063       1   18060   18081
   18099       1   18048   18039   18051       1   18048   18066   18087       1
   18042   18054   18072       1   18042   18057   18075       1   18036   18039
   18051       1   18036   18045   18063       1   18240   18231   18243       1
   18240   18234   18246       1   18234   18225   18237       1   18234   18240
   18249       1   18231   18240   18249       1   18225   18234   18246       1
   18222   18231   18243       1   18219   18201   18222       1   18210   18192
   18213       1   18210   18198   18216       1   18204   18189   18207       1
   18204   18225   18237       1   18198   18210   18228       1   18192   18174
   18195       1   18192   18210   18228       1   18186   18201   18219       1
   18183   18165   18186       1   18177   18162   18180       1   18177   18198
   18216       1   18174   18192   18213       1   18168   18153   18171       1
   18168   18189   18207       1   18156   18147   18159       1   18156   18174
   18195       1   18150   18162   18180       1   18150   18165   18183       1
   18144   18147   18159       1   18144   18153   18171       1   18348   18339
   18351       1   18348   18342   18354       1   18342   18333   18345       1
   18342   18348   18357       1   18339   18348   18357       1   18333   18342
   18354       1   18330   18339   18351       1   18327   18309   18330       1
   18318   18300   18321       1   18318   18306   18324       1   18312   18297
   18315       1   18312   18333   18345       1   18306   18318   18336       1
   18300   18282   18303       1   18300   18318   18336       1   18294   18309
   18327       1   18291   18273   18294       1   18285   18270   18288       1
   18285   18306   18324       1   18282   18300   18321       1   18276   18261
   18279       1   18276   18297   18315       1   18264   18255   18267       1
   18264   18282   18303       1   18258   18270   18288       1   18258   18273
   18291       1   18252   18255   18267       1   18252   18261   18279       1
   18456   18447   18459       1   18456   18450   18462       1   18450   18441
   18453       1   18450   18456   18465       1   18447   18456   18465       1
   18441   18450   18462       1   18438   18447   18459       1   18435   18417
   18438       1   18426   18408   18429       1   18426   18414   18432       1
   18420   18405   18423       1   18420   18441   18453       1   18414   18426
   18444       1   18408   18390   18411       1   18408   18426   18444       1
   18402   18417   18435       1   18399   18381   18402       1   18393   18378
   18396       1   18393   18414   18432       1   18390   18408   18429       1
   18384   18369   18387       1   18384   18405   18423       1   18372   18363
   18375       1   18372   18390   18411       1   18366   18378   18396       1
   18366   18381   18399       1   18360   18363   18375       1   18360   18369
   18387       1   18564   18555   18567       1   18564   18558   18570       1
   18558   18549   18561       1   18558   18564   18573       1   18555   18564
   18573       1   18549   18558   18570       1   18546   18555   18567       1
   18543   18525   18546       1   18534   18516   18537       1   18534   18522
   18540       1   18528   18513   18531       1   18528   18549   18561       1
   18522   18534   18552       1   18516   18498   18519       1   18516   18534
   18552       1   18510   18525   18543       1   18507   18489   18510       1
   18501   18486   18504       1   18501   18522   18540       1   18498   18516
   18537       1   18492   18477   18495       1   18492   18513   18531       1
   18480   18471   18483       1   18480   18498   18519       1   18474   18486
   18504       1   18474   18489   18507       1   18468   18471   18483       1
   18468   18477   18495       1   18672   18663   18675       1   18672   18666
   18678       1   18666   18657   18669       1   18666   18672   18681       1
   18663   18672   18681       1   18657   18666   18678       1   18654   18663
   18675       1   18651   18633   18654       1   18642   18624   18645       1
   18642   18630   18648       1   18636   18621   18639       1   18636   18657
   18669       1   18630   18642   18660       1   18624   18606   18627       1
   18624   18642   18660       1   18618   18633   18651       1   18615   18597
   18618       1   18609   18594   18612       1   18609   18630   18648       1
   18606   18624   18645       1   18600   18585   18603       1   18600   18621
   18639       1   18588   18579   18591       1   18588   18606   18627       1
   18582   18594   18612       1   18582   18597   18615       1   18576   18579
   18591       1   18576   18585   18603       1   18780   18771   18783       1
   18780   18774   18786       1   18774   18765   18777       1   18774   18780
   18789       1   18771   18780   18789       1   18765   18774   18786       1
   18762   18771   18783       1   18759   18741   18762       1   18750   18732
   18753       1   18750   18738   18756       1   18744   18729   18747       1
   18744   18765   18777       1   18738   18750   18768       1   18732   18714
   18735       1   18732   18750   18768       1   18726   18741   18759       1
   18723   18705   18726       1   18717   18702   18720       1   18717   18738
   18756       1   18714   18732   18753       1   18708   18693   18711       1
   18708   18729   18747       1   18696   18687   18699       1   18696   18714
   18735       1   18690   18702   18720       1   18690   18705   18723       1
   18684   18687   18699       1   18684   18693   18711       1   18888   18879
   18891       1   18888   18882   18894       1   18882   18873   18885       1
   18882   18888   18897       1   18879   18888   18897       1   18873   18882
   18894       1   18870   18879   18891       1   18867   18849   18870       1
   18858   18840   18861       1   18858   18846   18864       1   18852   18837
   18855       1   18852   18873   18885       1   18846   18858   18876       1
   18840   18822   18843       1   18840   18858   18876       1   18834   18849
   18867       1   18831   18813   18834       1   18825   18810   18828       1
   18825   18846   18864       1   18822   18840   18861       1   18816   18801
   18819       1   18816   18837   18855       1   18804   18795   18807       1
   18804   18822   18843       1   18798   18810   18828       1   18798   18813
   18831       1   18792   18795   18807       1   18792   18801   18819       1
   18996   18987   18999       1   18996   18990   19002       1   18990   18981
   18993       1   18990   18996   19005       1   18987   18996   19005       1
   18981   18990   19002       1   18978   18987   18999       1   18975   18957
   18978       1   18966   18948   18969       1   18966   18954   18972       1
   18960   18945   18963       1   18960   18981   18993       1   18954   18966
   18984       1   18948   18930   18951       1   18948   18966   18984       1
   18942   18957   18975       1   18939   18921   18942       1   18933   18918
   18936       1   18933   18954   18972       1   18930   18948   18969       1
   18924   18909   18927       1   18924   18945   18963       1   18912   18903
   18915       1   18912   18930   18951       1   18906   18918   18936       1
   18906   18921   18939       1   18900   18903   18915       1   18900   18909
   18927       1   19104   19095   19107       1   19104   19098   19110       1
   19098   19089   19101       1   19098   19104   19113       1   19095   19104
   19113       1   19089   19098   19110       1   19086   19095   19107       1
   19083   19065   19086       1   19074   19056   19077       1   19074   19062
   19080       1   19068   19053   19071       1   19068   19089   19101       1
   19062   19074   19092       1   19056   19038   19059       1   19056   19074
   19092       1   19050   19065   19083       1   19047   19029   19050       1
   19041   19026   19044       1   19041   19062   19080       1   19038   19056
   19077       1   19032   19017   19035       1   19032   19053   19071       1
   19020   19011   19023       1   19020   19038   19059       1   19014   19026
   19044       1   19014   19029   19047       1   19008   19011   19023       1
   19008   19017   19035       1   19212   19203   19215       1   19212   19206
   19218       1   19206   19197   19209       1   19206   19212   19221       1
   19203   19212   19221       1   19197   19206   19218       1   19194   19203
   19215       1   19191   19173   19194       1   19182   19164   19185       1
   19182   19170   19188       1   19176   19161   19179       1   19176   19197
   19209       1   19170   19182   19200       1   19164   19146   19167       1
   19164   19182   19200       1   19158   19173   19191       1   19155   19137
   19158       1   19149   19134   19152       1   19149   19170   19188       1
   19146   19164   19185       1   19140   19125   19143       1   19140   19161
   19179       1   19128   19119   19131       1   19128   19146   19167       1
   19122   19134   19152       1   19122   19137   19155       1   19116   19119
   19131       1   19116   19125   19143       1   19320   19311   19323       1
   19320   19314   19326       1   19314   19305   19317       1   19314   19320
   19329       1   19311   19320   19329       1   19305   19314   19326       1
   19302   19311   19323       1   19299   19281   19302       1   19290   19272
   19293       1   19290   19278   19296       1   19284   19269   19287       1
   19284   19305   19317       1   19278   19290   19308       1   19272   19254
   19275       1   19272   19290   19308       1   19266   19281   19299       1
   19263   19245   19266       1   19257   19242   19260       1   19257   19278
   19296       1   19254   19272   19293       1   19248   19233   19251       1
   19248   19269   19287       1   19236   19227   19239       1   19236   19254
   19275       1   19230   19242   19260       1   19230   19245   19263       1
   19224   19227   19239       1   19224   19233   19251       1   19428   19419
   19431       1   19428   19422   19434       1   19422   19413   19425       1
   19422   19428   19437       1   19419   19428   19437       1   19413   19422
   19434       1   19410   19419   19431       1   19407   19389   19410       1
   19398   19380   19401       1   19398   19386   19404       1   19392   19377
   19395       1   19392   19413   19425       1   19386   19398   19416       1
   19380   19362   19383       1   19380   19398   19416       1   19374   19389
   19407       1   19371   19353   19374       1   19365   19350   19368       1
   19365   19386   19404       1   19362   19380   19401       1   19356   19341
   19359       1   19356   19377   19395       1   19344   19335   19347       1
   19344   19362   19383       1   19338   19350   19368       1   19338   19353
   19371       1   19332   19335   19347       1   19332   19341   19359       1
   19536   19527   19539       1   19536   19530   19542       1   19530   19521
   19533       1   19530   19536   19545       1   19527   19536   19545       1
   19521   19530   19542       1   19518   19527   19539       1   19515   19497
   19518       1   19506   19488   19509       1   19506   19494   19512       1
   19500   19485   19503       1   19500   19521   19533       1   19494   19506
   19524       1   19488   19470   19491       1   19488   19506   19524       1
   19482   19497   19515       1   19479   19461   19482       1   19473   19458
   19476       1   19473   19494   19512       1   19470   19488   19509       1
   19464   19449   19467       1   19464   19485   19503       1   19452   19443
   19455       1   19452   19470   19491       1   19446   19458   19476       1
   19446   19461   19479       1   19440   19443   19455       1   19440   19449
   19467       1   19644   19635   19647       1   19644   19638   19650       1
   19638   19629   19641       1   19638   19644   19653       1   19635   19644
   19653       1   19629   19638   19650       1   19626   19635   19647       1
   19623   19605   19626       1   19614   19596   19617       1   19614   19602
   19620       1   19608   19593   19611       1   19608   19629   19641       1
   19602   19614   19632       1   19596   19578   19599       1   19596   19614
   19632       1   19590   19605   19623       1   19587   19569   19590       1
   19581   19566   19584       1   19581   19602   19620       1   19578   19596
   19617       1   19572   19557   19575       1   19572   19593   19611       1
   19560   19551   19563       1   19560   19578   19599       1   19554   19566
   19584       1   19554   19569   19587       1   19548   19551   19563       1
   19548   19557   19575       1   19752   19743   19755       1   19752   19746
   19758       1   19746   19737   19749       1   19746   19752   19761       1
   19743   19752   19761       1   19737   19746   19758       1   19734   19743
   19755       1   19731   19713   19734       1   19722   19704   19725       1
   19722   19710   19728       1   19716   19701   19719       1   19716   19737
   19749       1   19710   19722   19740       1   19704   19686   19707       1
   19704   19722   19740       1   19698   19713   19731       1   19695   19677
   19698       1   19689   19674   19692       1   19689   19710   19728       1
   19686   19704   19725       1   19680   19665   19683       1   19680   19701
   19719       1   19668   19659   19671       1   19668   19686   19707       1
   19662   19674   19692       1   19662   19677   19695       1   19656   19659
   19671       1   19656   19665   19683       1   19860   19851   19863       1
   19860   19854   19866       1   19854   19845   19857       1   19854   19860
   19869       1   19851   19860   19869       1   19845   19854   19866       1
   19842   19851   19863       1   19839   19821   19842       1   19830   19812
   19833       1   19830   19818   19836       1   19824   19809   19827       1
   19824   19845   19857       1   19818   19830   19848       1   19812   19794
   19815       1   19812   19830   19848       1   19806   19821   19839       1
   19803   19785   19806       1   19797   19782   19800       1   19797   19818
   19836       1   19794   19812   19833       1   19788   19773   19791       1
   19788   19809   19827       1   19776   19767   19779       1   19776   19794
   19815       1   19770   19782   19800       1   19770   19785   19803       1
   19764   19767   19779       1   19764   19773   19791       1   19968   19959
   19971       1   19968   19962   19974       1   19962   19953   19965       1
   19962   19968   19977       1   19959   19968   19977       1   19953   19962
   19974       1   19950   19959   19971       1   19947   19929   19950       1
   19938   19920   19941       1   19938   19926   19944       1   19932   19917
   19935       1   19932   19953   19965       1   19926   19938   19956       1
   19920   19902   19923       1   19920   19938   19956       1   19914   19929
   19947       1   19911   19893   19914       1   19905   19890   19908       1
   19905   19926   19944       1   19902   19920   19941       1   19896   19881
   19899       1   19896   19917   19935       1   19884   19875   19887       1
   19884   19902   19923       1   19878   19890   19908       1   19878   19893
   19911       1   19872   19875   19887       1   19872   19881   19899       1
   20076   20067   20079       1   20076   20070   20082       1   20070   20061
   20073       1   20070   20076   20085       1   20067   20076   20085       1
   20061   20070   20082       1   20058   20067   20079       1   20055   20037
   20058       1   20046   20028   20049       1   20046   20034   20052       1
   20040   20025   20043       1   20040   20061   20073       1   20034   20046
   20064       1   20028   20010   20031       1   20028   20046   20064       1
   20022   20037   20055       1   20019   20001   20022       1   20013   19998
   20016       1   20013   20034   20052       1   20010   20028   20049       1
   20004   19989   20007       1   20004   20025   20043       1   19992   19983
   19995       1   19992   20010   20031       1   19986   19998   20016       1
   19986   20001   20019       1   19980   19983   19995       1   19980   19989
   20007       1   20184   20175   20187       1   20184   20178   20190       1
   20178   20169   20181       1   20178   20184   20193       1   20175   20184
   20193       1   20169   20178   20190       1   20166   20175   20187       1
   20163   20145   20166       1   20154   20136   20157       1   20154   20142
   20160       1   20148   20133   20151       1   20148   20169   20181       1
   20142   20154   20172       1   20136   20118   20139       1   20136   20154
   20172       1   20130   20145   20163       1   20127   20109   20130       1
   20121   20106   20124       1   20121   20142   20160       1   20118   20136
   20157       1   20112   20097   20115       1   20112   20133   20151       1
   20100   20091   20103       1   20100   20118   20139       1   20094   20106
   20124       1   20094   20109   20127       1   20088   20091   20103       1
   20088   20097   20115       1   20292   20283   20295       1   20292   20286
   20298       1   20286   20277   20289       1   20286   20292   20301       1
   20283   20292   20301       1   20277   20286   20298       1   20274   20283
   20295       1   20271   20253   20274       1   20262   20244   20265       1
   20262   20250   20268       1   20256   20241   20259       1   20256   20277
   20289       1   20250   20262   20280       1   20244   20226   20247       1
   20244   20262   20280       1   20238   20253   20271       1   20235   20217
   20238       1   20229   20214   20232       1   20229   20250   20268       1
   20226   20244   20265       1   20220   20205   20223       1   20220   20241
   20259       1   20208   20199   20211       1   20208   20226   20247       1
   20202   20214   20232       1   20202   20217   20235       1   20196   20199
   20211       1   20196   20205   20223       1   20400   20391   20403       1
   20400   20394   20406       1   20394   20385   20397       1   20394   20400
   20409       1   20391   20400   20409       1   20385   20394   20406       1
   20382   20391   20403       1   20379   20361   20382       1   20370   20352
   20373       1   20370   20358   20376       1   20364   20349   20367       1
   20364   20385   20397       1   20358   20370   20388       1   20352   20334
   20355       1   20352   20370   20388       1   20346   20361   20379       1
   20343   20325   20346       1   20337   20322   20340       1   20337   20358
   20376       1   20334   20352   20373       1   20328   20313   20331       1
   20328   20349   20367       1   20316   20307   20319       1   20316   20334
   20355       1   20310   20322   20340       1   20310   20325   20343       1
   20304   20307   20319       1   20304   20313   20331       1   20508   20499
   20511       1   20508   20502   20514       1   20502   20493   20505       1
   20502   20508   20517       1   20499   20508   20517       1   20493   20502
   20514       1   20490   20499   20511       1   20487   20469   20490       1
   20478   20460   20481       1   20478   20466   20484       1   20472   20457
   20475       1   20472   20493   20505       1   20466   20478   20496       1
   20460   20442   20463       1   20460   20478   20496       1   20454   20469
   20487       1   20451   20433   20454       1   20445   20430   20448       1
   20445   20466   20484       1   20442   20460   20481       1   20436   20421
   20439       1   20436   20457   20475       1   20424   20415   20427       1
   20424   20442   20463       1   20418   20430   20448       1   20418   20433
   20451       1   20412   20415   20427       1   20412   20421   20439       1
   20616   20607   20619       1   20616   20610   20622       1   20610   20601
   20613       1   20610   20616   20625       1   20607   20616   20625       1
   20601   20610   20622       1   20598   20607   20619       1   20595   20577
   20598       1   20586   20568   20589       1   20586   20574   20592       1
   20580   20565   20583       1   20580   20601   20613       1   20574   20586
   20604       1   20568   20550   20571       1   20568   20586   20604       1
   20562   20577   20595       1   20559   20541   20562       1   20553   20538
   20556       1   20553   20574   20592       1   20550   20568   20589       1
   20544   20529   20547       1   20544   20565   20583       1   20532   20523
   20535       1   20532   20550   20571       1   20526   20538   20556       1
   20526   20541   20559       1   20520   20523   20535       1   20520   20529
   20547       1   20724   20715   20727       1   20724   20718   20730       1
   20718   20709   20721       1   20718   20724   20733       1   20715   20724
   20733       1   20709   20718   20730       1   20706   20715   20727       1
   20703   20685   20706       1   20694   20676   20697       1   20694   20682
   20700       1   20688   20673   20691       1   20688   20709   20721       1
   20682   20694   20712       1   20676   20658   20679       1   20676   20694
   20712       1   20670   20685   20703       1   20667   20649   20670       1
   20661   20646   20664       1   20661   20682   20700       1   20658   20676
   20697       1   20652   20637   20655       1   20652   20673   20691       1
   20640   20631   20643       1   20640   20658   20679       1   20634   20646
   20664       1   20634   20649   20667       1   20628   20631   20643       1
   20628   20637   20655       1   20832   20823   20835       1   20832   20826
   20838       1   20826   20817   20829       1   20826   20832   20841       1
   20823   20832   20841       1   20817   20826   20838       1   20814   20823
   20835       1   20811   20793   20814       1   20802   20784   20805       1
   20802   20790   20808       1   20796   20781   20799       1   20796   20817
   20829       1   20790   20802   20820       1   20784   20766   20787       1
   20784   20802   20820       1   20778   20793   20811       1   20775   20757
   20778       1   20769   20754   20772       1   20769   20790   20808       1
   20766   20784   20805       1   20760   20745   20763       1   20760   20781
   20799       1   20748   20739   20751       1   20748   20766   20787       1
   20742   20754   20772       1   20742   20757   20775       1   20736   20739
   20751       1   20736   20745   20763       1   20940   20931   20943       1
   20940   20934   20946       1   20934   20925   20937       1   20934   20940
   20949       1   20931   20940   20949       1   20925   20934   20946       1
   20922   20931   20943       1   20919   20901   20922       1   20910   20892
   20913       1   20910   20898   20916       1   20904   20889   20907       1
   20904   20925   20937       1   20898   20910   20928       1   20892   20874
   20895       1   20892   20910   20928       1   20886   20901   20919       1
   20883   20865   20886       1   20877   20862   20880       1   20877   20898
   20916       1   20874   20892   20913       1   20868   20853   20871       1
   20868   20889   20907       1   20856   20847   20859       1   20856   20874
   20895       1   20850   20862   20880       1   20850   20865   20883       1
   20844   20847   20859       1   20844   20853   20871       1   21048   21039
   21051       1   21048   21042   21054       1   21042   21033   21045       1
   21042   21048   21057       1   21039   21048   21057       1   21033   21042
   21054       1   21030   21039   21051       1   21027   21009   21030       1
   21018   21000   21021       1   21018   21006   21024       1   21012   20997
   21015       1   21012   21033   21045       1   21006   21018   21036       1
   21000   20982   21003       1   21000   21018   21036       1   20994   21009
   21027       1   20991   20973   20994       1   20985   20970   20988       1
   20985   21006   21024       1   20982   21000   21021       1   20976   20961
   20979       1   20976   20997   21015       1   20964   20955   20967       1
   20964   20982   21003       1   20958   20970   20988       1   20958   20973
   20991       1   20952   20955   20967       1   20952   20961   20979       1
   21156   21147   21159       1   21156   21150   21162       1   21150   21141
   21153       1   21150   21156   21165       1   21147   21156   21165       1
   21141   21150   21162       1   21138   21147   21159       1   21135   21117
   21138       1   21126   21108   21129       1   21126   21114   21132       1
   21120   21105   21123       1   21120   21141   21153       1   21114   21126
   21144       1   21108   21090   21111       1   21108   21126   21144       1
   21102   21117   21135       1   21099   21081   21102       1   21093   21078
   21096       1   21093   21114   21132       1   21090   21108   21129       1
   21084   21069   21087       1   21084   21105   21123       1   21072   21063
   21075       1   21072   21090   21111       1   21066   21078   21096       1
   21066   21081   21099       1   21060   21063   21075       1   21060   21069
   21087       1   21264   21255   21267       1   21264   21258   21270       1
   21258   21249   21261       1   21258   21264   21273       1   21255   21264
   21273       1   21249   21258   21270       1   21246   21255   21267       1
   21243   21225   21246       1   21234   21216   21237       1   21234   21222
   21240       1   21228   21213   21231       1   21228   21249   21261       1
   21222   21234   21252       1   21216   21198   21219       1   21216   21234
   21252       1   21210   21225   21243       1   21207   21189   21210       1
   21201   21186   21204       1   21201   21222   21240       1   21198   21216
   21237       1   21192   21177   21195       1   21192   21213   21231       1
   21180   21171   21183       1   21180   21198   21219       1   21174   21186
   21204       1   21174   21189   21207       1   21168   21171   21183       1
   21168   21177   21195       1   21372   21363   21375       1   21372   21366
   21378       1   21366   21357   21369       1   21366   21372   21381       1
   21363   21372   21381       1   21357   21366   21378       1   21354   21363
   21375       1   21351   21333   21354       1   21342   21324   21345       1
   21342   21330   21348       1   21336   21321   21339       1   21336   21357
   21369       1   21330   21342   21360       1   21324   21306   21327       1
   21324   21342   21360       1   21318   21333   21351       1   21315   21297
   21318       1   21309   21294   21312       1   21309   21330   21348       1
   21306   21324   21345       1   21300   21285   21303       1   21300   21321
   21339       1   21288   21279   21291       1   21288   21306   21327       1
   21282   21294   21312       1   21282   21297   21315       1   21276   21279
   21291       1   21276   21285   21303       1   21480   21471   21483       1
   21480   21474   21486       1   21474   21465   21477       1   21474   21480
   21489       1   21471   21480   21489       1   21465   21474   21486       1
   21462   21471   21483       1   21459   21441   21462       1   21450   21432
   21453       1   21450   21438   21456       1   21444   21429   21447       1
   21444   21465   21477       1   21438   21450   21468       1   21432   21414
   21435       1   21432   21450   21468       1   21426   21441   21459       1
   21423   21405   21426       1   21417   21402   21420       1   21417   21438
   21456       1   21414   21432   21453       1   21408   21393   21411       1
   21408   21429   21447       1   21396   21387   21399       1   21396   21414
   21435       1   21390   21402   21420       1   21390   21405   21423       1
   21384   21387   21399       1   21384   21393   21411       1   21588   21579
   21591       1   21588   21582   21594       1   21582   21573   21585       1
   21582   21588   21597       1   21579   21588   21597       1   21573   21582
   21594       1   21570   21579   21591       1   21567   21549   21570       1
   21558   21540   21561       1   21558   21546   21564       1   21552   21537
   21555       1   21552   21573   21585       1   21546   21558   21576       1
   21540   21522   21543       1   21540   21558   21576       1   21534   21549
   21567       1   21531   21513   21534       1   21525   21510   21528       1
   21525   21546   21564       1   21522   21540   21561       1   21516   21501
   21519       1   21516   21537   21555       1   21504   21495   21507       1
   21504   21522   21543       1   21498   21510   21528       1   21498   21513
   21531       1   21492   21495   21507       1   21492   21501   21519       1
   21696   21687   21699       1   21696   21690   21702       1   21690   21681
   21693       1   21690   21696   21705       1   21687   21696   21705       1
   21681   21690   21702       1   21678   21687   21699       1   21675   21657
   21678       1   21666   21648   21669       1   21666   21654   21672       1
   21660   21645   21663       1   21660   21681   21693       1   21654   21666
   21684       1   21648   21630   21651       1   21648   21666   21684       1
   21642   21657   21675       1   21639   21621   21642       1   21633   21618
   21636       1   21633   21654   21672       1   21630   21648   21669       1
   21624   21609   21627       1   21624   21645   21663       1   21612   21603
   21615       1   21612   21630   21651       1   21606   21618   21636       1
   21606   21621   21639       1   21600   21603   21615       1   21600   21609
   21627       1   21804   21795   21807       1   21804   21798   21810       1
   21798   21789   21801       1   21798   21804   21813       1   21795   21804
   21813       1   21789   21798   21810       1   21786   21795   21807       1
   21783   21765   21786       1   21774   21756   21777       1   21774   21762
   21780       1   21768   21753   21771       1   21768   21789   21801       1
   21762   21774   21792       1   21756   21738   21759       1   21756   21774
   21792       1   21750   21765   21783       1   21747   21729   21750       1
   21741   21726   21744       1   21741   21762   21780       1   21738   21756
   21777       1   21732   21717   21735       1   21732   21753   21771       1
   21720   21711   21723       1   21720   21738   21759       1   21714   21726
   21744       1   21714   21729   21747       1   21708   21711   21723       1
   21708   21717   21735       1   21912   21903   21915       1   21912   21906
   21918       1   21906   21897   21909       1   21906   21912   21921       1
   21903   21912   21921       1   21897   21906   21918       1   21894   21903
   21915       1   21891   21873   21894       1   21882   21864   21885       1
   21882   21870   21888       1   21876   21861   21879       1   21876   21897
   21909       1   21870   21882   21900       1   21864   21846   21867       1
   21864   21882   21900       1   21858   21873   21891       1   21855   21837
   21858       1   21849   21834   21852       1   21849   21870   21888       1
   21846   21864   21885       1   21840   21825   21843       1   21840   21861
   21879       1   21828   21819   21831       1   21828   21846   21867       1
   21822   21834   21852       1   21822   21837   21855       1   21816   21819
   21831       1   21816   21825   21843       1   22020   22011   22023       1
   22020   22014   22026       1   22014   22005   22017       1   22014   22020
   22029       1   22011   22020   22029       1   22005   22014   22026       1
   22002   22011   22023       1   21999   21981   22002       1   21990   21972
   21993       1   21990   21978   21996       1   21984   21969   21987       1
   21984   22005   22017       1   21978   21990   22008       1   21972   21954
   21975       1   21972   21990   22008       1   21966   21981   21999       1
   21963   21945   21966       1   21957   21942   21960       1   21957   21978
   21996       1   21954   21972   21993       1   21948   21933   21951       1
   21948   21969   21987       1   21936   21927   21939       1   21936   21954
   21975       1   21930   21942   21960       1   21930   21945   21963       1
   21924   21927   21939       1   21924   21933   21951       1   22128   22119
   22131       1   22128   22122   22134       1   22122   22113   22125       1
   22122   22128   22137       1   22119   22128   22137       1   22113   22122
   22134       1   22110   22119   22131       1   22107   22089   22110       1
   22098   22080   22101       1   22098   22086   22104       1   22092   22077
   22095       1   22092   22113   22125       1   22086   22098   22116       1
   22080   22062   22083       1   22080   22098   22116       1   22074   22089
   22107       1   22071   22053   22074       1   22065   22050   22068       1
   22065   22086   22104       1   22062   22080   22101       1   22056   22041
   22059       1   22056   22077   22095       1   22044   22035   22047       1
   22044   22062   22083       1   22038   22050   22068       1   22038   22053
   22071       1   22032   22035   22047       1   22032   22041   22059       1
   22236   22227   22239       1   22236   22230   22242       1   22230   22221
   22233       1   22230   22236   22245       1   22227   22236   22245       1
   22221   22230   22242       1   22218   22227   22239       1   22215   22197
   22218       1   22206   22188   22209       1   22206   22194   22212       1
   22200   22185   22203       1   22200   22221   22233       1   22194   22206
   22224       1   22188   22170   22191       1   22188   22206   22224       1
   22182   22197   22215       1   22179   22161   22182       1   22173   22158
   22176       1   22173   22194   22212       1   22170   22188   22209       1
   22164   22149   22167       1   22164   22185   22203       1   22152   22143
   22155       1   22152   22170   22191       1   22146   22158   22176       1
   22146   22161   22179       1   22140   22143   22155       1   22140   22149
   22167       1   22344   22335   22347       1   22344   22338   22350       1
   22338   22329   22341       1   22338   22344   22353       1   22335   22344
   22353       1   22329   22338   22350       1   22326   22335   22347       1
   22323   22305   22326       1   22314   22296   22317       1   22314   22302
   22320       1   22308   22293   22311       1   22308   22329   22341       1
   22302   22314   22332       1   22296   22278   22299       1   22296   22314
   22332       1   22290   22305   22323       1   22287   22269   22290       1
   22281   22266   22284       1   22281   22302   22320       1   22278   22296
   22317       1   22272   22257   22275       1   22272   22293   22311       1
   22260   22251   22263       1   22260   22278   22299       1   22254   22266
   22284       1   22254   22269   22287       1   22248   22251   22263       1
   22248   22257   22275       1   22452   22443   22455       1   22452   22446
   22458       1   22446   22437   22449       1   22446   22452   22461       1
   22443   22452   22461       1   22437   22446   22458       1   22434   22443
   22455       1   22431   22413   22434       1   22422   22404   22425       1
   22422   22410   22428       1   22416   22401   22419       1   22416   22437
   22449       1   22410   22422   22440       1   22404   22386   22407       1
   22404   22422   22440       1   22398   22413   22431       1   22395   22377
   22398       1   22389   22374   22392       1   22389   22410   22428       1
   22386   22404   22425       1   22380   22365   22383       1   22380   22401
   22419       1   22368   22359   22371       1   22368   22386   22407       1
   22362   22374   22392       1   22362   22377   22395       1   22356   22359
   22371       1   22356   22365   22383       1   22560   22551   22563       1
   22560   22554   22566       1   22554   22545   22557       1   22554   22560
   22569       1   22551   22560   22569       1   22545   22554   22566       1
   22542   22551   22563       1   22539   22521   22542       1   22530   22512
   22533       1   22530   22518   22536       1   22524   22509   22527       1
   22524   22545   22557       1   22518   22530   22548       1   22512   22494
   22515       1   22512   22530   22548       1   22506   22521   22539       1
   22503   22485   22506       1   22497   22482   22500       1   22497   22518
   22536       1   22494   22512   22533       1   22488   22473   22491       1
   22488   22509   22527       1   22476   22467   22479       1   22476   22494
   22515       1   22470   22482   22500       1   22470   22485   22503       1
   22464   22467   22479       1   22464   22473   22491       1   22668   22659
   22671       1   22668   22662   22674       1   22662   22653   22665       1
   22662   22668   22677       1   22659   22668   22677       1   22653   22662
   22674       1   22650   22659   22671       1   22647   22629   22650       1
   22638   22620   22641       1   22638   22626   22644       1   22632   22617
   22635       1   22632   22653   22665       1   22626   22638   22656       1
   22620   22602   22623       1   22620   22638   22656       1   22614   22629
   22647       1   22611   22593   22614       1   22605   22590   22608       1
   22605   22626   22644       1   22602   22620   22641       1   22596   22581
   22599       1   22596   22617   22635       1   22584   22575   22587       1
   22584   22602   22623       1   22578   22590   22608       1   22578   22593
   22611       1   22572   22575   22587       1   22572   22581   22599       1
   22776   22767   22779       1   22776   22770   22782       1   22770   22761
   22773       1   22770   22776   22785       1   22767   22776   22785       1
   22761   22770   22782       1   22758   22767   22779       1   22755   22737
   22758       1   22746   22728   22749       1   22746   22734   22752       1
   22740   22725   22743       1   22740   22761   22773       1   22734   22746
   22764       1   22728   22710   22731       1   22728   22746   22764       1
   22722   22737   22755       1   22719   22701   22722       1   22713   22698
   22716       1   22713   22734   22752       1   22710   22728   22749       1
   22704   22689   22707       1   22704   22725   22743       1   22692   22683
   22695       1   22692   22710   22731       1   22686   22698   22716       1
   22686   22701   22719       1   22680   22683   22695       1   22680   22689
   22707       1   22884   22875   22887       1   22884   22878   22890       1
   22878   22869   22881       1   22878   22884   22893       1   22875   22884
   22893       1   22869   22878   22890       1   22866   22875   22887       1
   22863   22845   22866       1   22854   22836   22857       1   22854   22842
   22860       1   22848   22833   22851       1   22848   22869   22881       1
   22842   22854   22872       1   22836   22818   22839       1   22836   22854
   22872       1   22830   22845   22863       1   22827   22809   22830       1
   22821   22806   22824       1   22821   22842   22860       1   22818   22836
   22857       1   22812   22797   22815       1   22812   22833   22851       1
   22800   22791   22803       1   22800   22818   22839       1   22794   22806
   22824       1   22794   22809   22827       1   22788   22791   22803       1
   22788   22797   22815       1   22992   22983   22995       1   22992   22986
   22998       1   22986   22977   22989       1   22986   22992   23001       1
   22983   22992   23001       1   22977   22986   22998       1   22974   22983
   22995       1   22971   22953   22974       1   22962   22944   22965       1
   22962   22950   22968       1   22956   22941   22959       1   22956   22977
   22989       1   22950   22962   22980       1   22944   22926   22947       1
   22944   22962   22980       1   22938   22953   22971       1   22935   22917
   22938       1   22929   22914   22932       1   22929   22950   22968       1
   22926   22944   22965       1   22920   22905   22923       1   22920   22941
   22959       1   22908   22899   22911       1   22908   22926   22947       1
   22902   22914   22932       1   22902   22917   22935       1   22896   22899
   22911       1   22896   22905   22923       1   23100   23091   23103       1
   23100   23094   23106       1   23094   23085   23097       1   23094   23100
   23109       1   23091   23100   23109       1   23085   23094   23106       1
   23082   23091   23103       1   23079   23061   23082       1   23070   23052
   23073       1   23070   23058   23076       1   23064   23049   23067       1
   23064   23085   23097       1   23058   23070   23088       1   23052   23034
   23055       1   23052   23070   23088       1   23046   23061   23079       1
   23043   23025   23046       1   23037   23022   23040       1   23037   23058
   23076       1   23034   23052   23073       1   23028   23013   23031       1
   23028   23049   23067       1   23016   23007   23019       1   23016   23034
   23055       1   23010   23022   23040       1   23010   23025   23043       1
   23004   23007   23019       1   23004   23013   23031       1   23208   23199
   23211       1   23208   23202   23214       1   23202   23193   23205       1
   23202   23208   23217       1   23199   23208   23217       1   23193   23202
   23214       1   23190   23199   23211       1   23187   23169   23190       1
   23178   23160   23181       1   23178   23166   23184       1   23172   23157
   23175       1   23172   23193   23205       1   23166   23178   23196       1
   23160   23142   23163       1   23160   23178   23196       1   23154   23169
   23187       1   23151   23133   23154       1   23145   23130   23148       1
   23145   23166   23184       1   23142   23160   23181       1   23136   23121
   23139       1   23136   23157   23175       1   23124   23115   23127       1
   23124   23142   23163       1   23118   23130   23148       1   23118   23133
   23151       1   23112   23115   23127       1   23112   23121   23139       1
   23316   23307   23319       1   23316   23310   23322       1   23310   23301
   23313       1   23310   23316   23325       1   23307   23316   23325       1
   23301   23310   23322       1   23298   23307   23319       1   23295   23277
   23298       1   23286   23268   23289       1   23286   23274   23292       1
   23280   23265   23283       1   23280   23301   23313       1   23274   23286
   23304       1   23268   23250   23271       1   23268   23286   23304       1
   23262   23277   23295       1   23259   23241   23262       1   23253   23238
   23256       1   23253   23274   23292       1   23250   23268   23289       1
   23244   23229   23247       1   23244   23265   23283       1   23232   23223
   23235       1   23232   23250   23271       1   23226   23238   23256       1
   23226   23241   23259       1   23220   23223   23235       1   23220   23229
   23247       1   23424   23415   23427       1   23424   23418   23430       1
   23418   23409   23421       1   23418   23424   23433       1   23415   23424
   23433       1   23409   23418   23430       1   23406   23415   23427       1
   23403   23385   23406       1   23394   23376   23397       1   23394   23382
   23400       1   23388   23373   23391       1   23388   23409   23421       1
   23382   23394   23412       1   23376   23358   23379       1   23376   23394
   23412       1   23370   23385   23403       1   23367   23349   23370       1
   23361   23346   23364       1   23361   23382   23400       1   23358   23376
   23397       1   23352   23337   23355       1   23352   23373   23391       1
   23340   23331   23343       1   23340   23358   23379       1   23334   23346
   23364       1   23334   23349   23367       1   23328   23331   23343       1
   23328   23337   23355       1   23532   23523   23535       1   23532   23526
   23538       1   23526   23517   23529       1   23526   23532   23541       1
   23523   23532   23541       1   23517   23526   23538       1   23514   23523
   23535       1   23511   23493   23514       1   23502   23484   23505       1
   23502   23490   23508       1   23496   23481   23499       1   23496   23517
   23529       1   23490   23502   23520       1   23484   23466   23487       1
   23484   23502   23520       1   23478   23493   23511       1   23475   23457
   23478       1   23469   23454   23472       1   23469   23490   23508       1
   23466   23484   23505       1   23460   23445   23463       1   23460   23481
   23499       1   23448   23439   23451       1   23448   23466   23487       1
   23442   23454   23472       1   23442   23457   23475       1   23436   23439
   23451       1   23436   23445   23463       1   23640   23631   23643       1
   23640   23634   23646       1   23634   23625   23637       1   23634   23640
   23649       1   23631   23640   23649       1   23625   23634   23646       1
   23622   23631   23643       1   23619   23601   23622       1   23610   23592
   23613       1   23610   23598   23616       1   23604   23589   23607       1
   23604   23625   23637       1   23598   23610   23628       1   23592   23574
   23595       1   23592   23610   23628       1   23586   23601   23619       1
   23583   23565   23586       1   23577   23562   23580       1   23577   23598
   23616       1   23574   23592   23613       1   23568   23553   23571       1
   23568   23589   23607       1   23556   23547   23559       1   23556   23574
   23595       1   23550   23562   23580       1   23550   23565   23583       1
   23544   23547   23559       1   23544   23553   23571       1   23748   23739
   23751       1   23748   23742   23754       1   23742   23733   23745       1
   23742   23748   23757       1   23739   23748   23757       1   23733   23742
   23754       1   23730   23739   23751       1   23727   23709   23730       1
   23718   23700   23721       1   23718   23706   23724       1   23712   23697
   23715       1   23712   23733   23745       1   23706   23718   23736       1
   23700   23682   23703       1   23700   23718   23736       1   23694   23709
   23727       1   23691   23673   23694       1   23685   23670   23688       1
   23685   23706   23724       1   23682   23700   23721       1   23676   23661
   23679       1   23676   23697   23715       1   23664   23655   23667       1
   23664   23682   23703       1   23658   23670   23688       1   23658   23673
   23691       1   23652   23655   23667       1   23652   23661   23679       1
   23856   23847   23859       1   23856   23850   23862       1   23850   23841
   23853       1   23850   23856   23865       1   23847   23856   23865       1
   23841   23850   23862       1   23838   23847   23859       1   23835   23817
   23838       1   23826   23808   23829       1   23826   23814   23832       1
   23820   23805   23823       1   23820   23841   23853       1   23814   23826
   23844       1   23808   23790   23811       1   23808   23826   23844       1
   23802   23817   23835       1   23799   23781   23802       1   23793   23778
   23796       1   23793   23814   23832       1   23790   23808   23829       1
   23784   23769   23787       1   23784   23805   23823       1   23772   23763
   23775       1   23772   23790   23811       1   23766   23778   23796       1
   23766   23781   23799       1   23760   23763   23775       1   23760   23769
   23787       1   23964   23955   23967       1   23964   23958   23970       1
   23958   23949   23961       1   23958   23964   23973       1   23955   23964
   23973       1   23949   23958   23970       1   23946   23955   23967       1
   23943   23925   23946       1   23934   23916   23937       1   23934   23922
   23940       1   23928   23913   23931       1   23928   23949   23961       1
   23922   23934   23952       1   23916   23898   23919       1   23916   23934
   23952       1   23910   23925   23943       1   23907   23889   23910       1
   23901   23886   23904       1   23901   23922   23940       1   23898   23916
   23937       1   23892   23877   23895       1   23892   23913   23931       1
   23880   23871   23883       1   23880   23898   23919       1   23874   23886
   23904       1   23874   23889   23907       1   23868   23871   23883       1
   23868   23877   23895       1   24072   24063   24075       1   24072   24066
   24078       1   24066   24057   24069       1   24066   24072   24081       1
   24063   24072   24081       1   24057   24066   24078       1   24054   24063
   24075       1   24051   24033   24054       1   24042   24024   24045       1
   24042   24030   24048       1   24036   24021   24039       1   24036   24057
   24069       1   24030   24042   24060       1   24024   24006   24027       1
   24024   24042   24060       1   24018   24033   24051       1   24015   23997
   24018       1   24009   23994   24012       1   24009   24030   24048       1
   24006   24024   24045       1   24000   23985   24003       1   24000   24021
   24039       1   23988   23979   23991       1   23988   24006   24027       1
   23982   23994   24012       1   23982   23997   24015       1   23976   23979
   23991       1   23976   23985   24003       1   24180   24171   24183       1
   24180   24174   24186       1   24174   24165   24177       1   24174   24180
   24189       1   24171   24180   24189       1   24165   24174   24186       1
   24162   24171   24183       1   24159   24141   24162       1   24150   24132
   24153       1   24150   24138   24156       1   24144   24129   24147       1
   24144   24165   24177       1   24138   24150   24168       1   24132   24114
   24135       1   24132   24150   24168       1   24126   24141   24159       1
   24123   24105   24126       1   24117   24102   24120       1   24117   24138
   24156       1   24114   24132   24153       1   24108   24093   24111       1
   24108   24129   24147       1   24096   24087   24099       1   24096   24114
   24135       1   24090   24102   24120       1   24090   24105   24123       1
   24084   24087   24099       1   24084   24093   24111       1   24288   24279
   24291       1   24288   24282   24294       1   24282   24273   24285       1
   24282   24288   24297       1   24279   24288   24297       1   24273   24282
   24294       1   24270   24279   24291       1   24267   24249   24270       1
   24258   24240   24261       1   24258   24246   24264       1   24252   24237
   24255       1   24252   24273   24285       1   24246   24258   24276       1
   24240   24222   24243       1   24240   24258   24276       1   24234   24249
   24267       1   24231   24213   24234       1   24225   24210   24228       1
   24225   24246   24264       1   24222   24240   24261       1   24216   24201
   24219       1   24216   24237   24255       1   24204   24195   24207       1
   24204   24222   24243       1   24198   24210   24228       1   24198   24213
   24231       1   24192   24195   24207       1   24192   24201   24219       1
   24396   24387   24399       1   24396   24390   24402       1   24390   24381
   24393       1   24390   24396   24405       1   24387   24396   24405       1
   24381   24390   24402       1   24378   24387   24399       1   24375   24357
   24378       1   24366   24348   24369       1   24366   24354   24372       1
   24360   24345   24363       1   24360   24381   24393       1   24354   24366
   24384       1   24348   24330   24351       1   24348   24366   24384       1
   24342   24357   24375       1   24339   24321   24342       1   24333   24318
   24336       1   24333   24354   24372       1   24330   24348   24369       1
   24324   24309   24327       1   24324   24345   24363       1   24312   24303
   24315       1   24312   24330   24351       1   24306   24318   24336       1
   24306   24321   24339       1   24300   24303   24315       1   24300   24309
   24327       1   24504   24495   24507       1   24504   24498   24510       1
   24498   24489   24501       1   24498   24504   24513       1   24495   24504
   24513       1   24489   24498   24510       1   24486   24495   24507       1
   24483   24465   24486       1   24474   24456   24477       1   24474   24462
   24480       1   24468   24453   24471       1   24468   24489   24501       1
   24462   24474   24492       1   24456   24438   24459       1   24456   24474
   24492       1   24450   24465   24483       1   24447   24429   24450       1
   24441   24426   24444       1   24441   24462   24480       1   24438   24456
   24477       1   24432   24417   24435       1   24432   24453   24471       1
   24420   24411   24423       1   24420   24438   24459       1   24414   24426
   24444       1   24414   24429   24447       1   24408   24411   24423       1
   24408   24417   24435       1   24612   24603   24615       1   24612   24606
   24618       1   24606   24597   24609       1   24606   24612   24621       1
   24603   24612   24621       1   24597   24606   24618       1   24594   24603
   24615       1   24591   24573   24594       1   24582   24564   24585       1
   24582   24570   24588       1   24576   24561   24579       1   24576   24597
   24609       1   24570   24582   24600       1   24564   24546   24567       1
   24564   24582   24600       1   24558   24573   24591       1   24555   24537
   24558       1   24549   24534   24552       1   24549   24570   24588       1
   24546   24564   24585       1   24540   24525   24543       1   24540   24561
   24579       1   24528   24519   24531       1   24528   24546   24567       1
   24522   24534   24552       1   24522   24537   24555       1   24516   24519
   24531       1   24516   24525   24543       1   24720   24711   24723       1
   24720   24714   24726       1   24714   24705   24717       1   24714   24720
   24729       1   24711   24720   24729       1   24705   24714   24726       1
   24702   24711   24723       1   24699   24681   24702       1   24690   24672
   24693       1   24690   24678   24696       1   24684   24669   24687       1
   24684   24705   24717       1   24678   24690   24708       1   24672   24654
   24675       1   24672   24690   24708       1   24666   24681   24699       1
   24663   24645   24666       1   24657   24642   24660       1   24657   24678
   24696       1   24654   24672   24693       1   24648   24633   24651       1
   24648   24669   24687       1   24636   24627   24639       1   24636   24654
   24675       1   24630   24642   24660       1   24630   24645   24663       1
   24624   24627   24639       1   24624   24633   24651       1   24828   24819
   24831       1   24828   24822   24834       1   24822   24813   24825       1
   24822   24828   24837       1   24819   24828   24837       1   24813   24822
   24834       1   24810   24819   24831       1   24807   24789   24810       1
   24798   24780   24801       1   24798   24786   24804       1   24792   24777
   24795       1   24792   24813   24825       1   24786   24798   24816       1
   24780   24762   24783       1   24780   24798   24816       1   24774   24789
   24807       1   24771   24753   24774       1   24765   24750   24768       1
   24765   24786   24804       1   24762   24780   24801       1   24756   24741
   24759       1   24756   24777   24795       1   24744   24735   24747       1
   24744   24762   24783       1   24738   24750   24768       1   24738   24753
   24771       1   24732   24735   24747       1   24732   24741   24759       1
   24936   24927   24939       1   24936   24930   24942       1   24930   24921
   24933       1   24930   24936   24945       1   24927   24936   24945       1
   24921   24930   24942       1   24918   24927   24939       1   24915   24897
   24918       1   24906   24888   24909       1   24906   24894   24912       1
   24900   24885   24903       1   24900   24921   24933       1   24894   24906
   24924       1   24888   24870   24891       1   24888   24906   24924       1
   24882   24897   24915       1   24879   24861   24882       1   24873   24858
   24876       1   24873   24894   24912       1   24870   24888   24909       1
   24864   24849   24867       1   24864   24885   24903       1   24852   24843
   24855       1   24852   24870   24891       1   24846   24858   24876       1
   24846   24861   24879       1   24840   24843   24855       1   24840   24849
   24867       1   25044   25035   25047       1   25044   25038   25050       1
   25038   25029   25041       1   25038   25044   25053       1   25035   25044
   25053       1   25029   25038   25050       1   25026   25035   25047       1
   25023   25005   25026       1   25014   24996   25017       1   25014   25002
   25020       1   25008   24993   25011       1   25008   25029   25041       1
   25002   25014   25032       1   24996   24978   24999       1   24996   25014
   25032       1   24990   25005   25023       1   24987   24969   24990       1
   24981   24966   24984       1   24981   25002   25020       1   24978   24996
   25017       1   24972   24957   24975       1   24972   24993   25011       1
   24960   24951   24963       1   24960   24978   24999       1   24954   24966
   24984       1   24954   24969   24987       1   24948   24951   24963       1
   24948   24957   24975       1   25152   25143   25155       1   25152   25146
   25158       1   25146   25137   25149       1   25146   25152   25161       1
   25143   25152   25161       1   25137   25146   25158       1   25134   25143
   25155       1   25131   25113   25134       1   25122   25104   25125       1
   25122   25110   25128       1   25116   25101   25119       1   25116   25137
   25149       1   25110   25122   25140       1   25104   25086   25107       1
   25104   25122   25140       1   25098   25113   25131       1   25095   25077
   25098       1   25089   25074   25092       1   25089   25110   25128       1
   25086   25104   25125       1   25080   25065   25083       1   25080   25101
   25119       1   25068   25059   25071       1   25068   25086   25107       1
   25062   25074   25092       1   25062   25077   25095       1   25056   25059
   25071       1   25056   25065   25083       1   25260   25251   25263       1
   25260   25254   25266       1   25254   25245   25257       1   25254   25260
   25269       1   25251   25260   25269       1   25245   25254   25266       1
   25242   25251   25263       1   25239   25221   25242       1   25230   25212
   25233       1   25230   25218   25236       1   25224   25209   25227       1
   25224   25245   25257       1   25218   25230   25248       1   25212   25194
   25215       1   25212   25230   25248       1   25206   25221   25239       1
   25203   25185   25206       1   25197   25182   25200       1   25197   25218
   25236       1   25194   25212   25233       1   25188   25173   25191       1
   25188   25209   25227       1   25176   25167   25179       1   25176   25194
   25215       1   25170   25182   25200       1   25170   25185   25203       1
   25164   25167   25179       1   25164   25173   25191       1   25368   25359
   25371       1   25368   25362   25374       1   25362   25353   25365       1
   25362   25368   25377       1   25359   25368   25377       1   25353   25362
   25374       1   25350   25359   25371       1   25347   25329   25350       1
   25338   25320   25341       1   25338   25326   25344       1   25332   25317
   25335       1   25332   25353   25365       1   25326   25338   25356       1
   25320   25302   25323       1   25320   25338   25356       1   25314   25329
   25347       1   25311   25293   25314       1   25305   25290   25308       1
   25305   25326   25344       1   25302   25320   25341       1   25296   25281
   25299       1   25296   25317   25335       1   25284   25275   25287       1
   25284   25302   25323       1   25278   25290   25308       1   25278   25293
   25311       1   25272   25275   25287       1   25272   25281   25299       1
   25476   25467   25479       1   25476   25470   25482       1   25470   25461
   25473       1   25470   25476   25485       1   25467   25476   25485       1
   25461   25470   25482       1   25458   25467   25479       1   25455   25437
   25458       1   25446   25428   25449       1   25446   25434   25452       1
   25440   25425   25443       1   25440   25461   25473       1   25434   25446
   25464       1   25428   25410   25431       1   25428   25446   25464       1
   25422   25437   25455       1   25419   25401   25422       1   25413   25398
   25416       1   25413   25434   25452       1   25410   25428   25449       1
   25404   25389   25407       1   25404   25425   25443       1   25392   25383
   25395       1   25392   25410   25431       1   25386   25398   25416       1
   25386   25401   25419       1   25380   25383   25395       1   25380   25389
   25407       1   25584   25575   25587       1   25584   25578   25590       1
   25578   25569   25581       1   25578   25584   25593       1   25575   25584
   25593       1   25569   25578   25590       1   25566   25575   25587       1
   25563   25545   25566       1   25554   25536   25557       1   25554   25542
   25560       1   25548   25533   25551       1   25548   25569   25581       1
   25542   25554   25572       1   25536   25518   25539       1   25536   25554
   25572       1   25530   25545   25563       1   25527   25509   25530       1
   25521   25506   25524       1   25521   25542   25560       1   25518   25536
   25557       1   25512   25497   25515       1   25512   25533   25551       1
   25500   25491   25503       1   25500   25518   25539       1   25494   25506
   25524       1   25494   25509   25527       1   25488   25491   25503       1
   25488   25497   25515       1   25692   25683   25695       1   25692   25686
   25698       1   25686   25677   25689       1   25686   25692   25701       1
   25683   25692   25701       1   25677   25686   25698       1   25674   25683
   25695       1   25671   25653   25674       1   25662   25644   25665       1
   25662   25650   25668       1   25656   25641   25659       1   25656   25677
   25689       1   25650   25662   25680       1   25644   25626   25647       1
   25644   25662   25680       1   25638   25653   25671       1   25635   25617
   25638       1   25629   25614   25632       1   25629   25650   25668       1
   25626   25644   25665       1   25620   25605   25623       1   25620   25641
   25659       1   25608   25599   25611       1   25608   25626   25647       1
   25602   25614   25632       1   25602   25617   25635       1   25596   25599
   25611       1   25596   25605   25623       1   25800   25791   25803       1
   25800   25794   25806       1   25794   25785   25797       1   25794   25800
   25809       1   25791   25800   25809       1   25785   25794   25806       1
   25782   25791   25803       1   25779   25761   25782       1   25770   25752
   25773       1   25770   25758   25776       1   25764   25749   25767       1
   25764   25785   25797       1   25758   25770   25788       1   25752   25734
   25755       1   25752   25770   25788       1   25746   25761   25779       1
   25743   25725   25746       1   25737   25722   25740       1   25737   25758
   25776       1   25734   25752   25773       1   25728   25713   25731       1
   25728   25749   25767       1   25716   25707   25719       1   25716   25734
   25755       1   25710   25722   25740       1   25710   25725   25743       1
   25704   25707   25719       1   25704   25713   25731       1   25908   25899
   25911       1   25908   25902   25914       1   25902   25893   25905       1
   25902   25908   25917       1   25899   25908   25917       1   25893   25902
   25914       1   25890   25899   25911       1   25887   25869   25890       1
   25878   25860   25881       1   25878   25866   25884       1   25872   25857
   25875       1   25872   25893   25905       1   25866   25878   25896       1
   25860   25842   25863       1   25860   25878   25896       1   25854   25869
   25887       1   25851   25833   25854       1   25845   25830   25848       1
   25845   25866   25884       1   25842   25860   25881       1   25836   25821
   25839       1   25836   25857   25875       1   25824   25815   25827       1
   25824   25842   25863       1   25818   25830   25848       1   25818   25833
   25851       1   25812   25815   25827       1   25812   25821   25839       1
   26016   26007   26019       1   26016   26010   26022       1   26010   26001
   26013       1   26010   26016   26025       1   26007   26016   26025       1
   26001   26010   26022       1   25998   26007   26019       1   25995   25977
   25998       1   25986   25968   25989       1   25986   25974   25992       1
   25980   25965   25983       1   25980   26001   26013       1   25974   25986
   26004       1   25968   25950   25971       1   25968   25986   26004       1
   25962   25977   25995       1   25959   25941   25962       1   25953   25938
   25956       1   25953   25974   25992       1   25950   25968   25989       1
   25944   25929   25947       1   25944   25965   25983       1   25932   25923
   25935       1   25932   25950   25971       1   25926   25938   25956       1
   25926   25941   25959       1   25920   25923   25935       1   25920   25929
   25947       1   26124   26115   26127       1   26124   26118   26130       1
   26118   26109   26121       1   26118   26124   26133       1   26115   26124
   26133       1   26109   26118   26130       1   26106   26115   26127       1
   26103   26085   26106       1   26094   26076   26097       1   26094   26082
   26100       1   26088   26073   26091       1   26088   26109   26121       1
   26082   26094   26112       1   26076   26058   26079       1   26076   26094
   26112       1   26070   26085   26103       1   26067   26049   26070       1
   26061   26046   26064       1   26061   26082   26100       1   26058   26076
   26097       1   26052   26037   26055       1   26052   26073   26091       1
   26040   26031   26043       1   26040   26058   26079       1   26034   26046
   26064       1   26034   26049   26067       1   26028   26031   26043       1
   26028   26037   26055       1   26232   26223   26235       1   26232   26226
   26238       1   26226   26217   26229       1   26226   26232   26241       1
   26223   26232   26241       1   26217   26226   26238       1   26214   26223
   26235       1   26211   26193   26214       1   26202   26184   26205       1
   26202   26190   26208       1   26196   26181   26199       1   26196   26217
   26229       1   26190   26202   26220       1   26184   26166   26187       1
   26184   26202   26220       1   26178   26193   26211       1   26175   26157
   26178       1   26169   26154   26172       1   26169   26190   26208       1
   26166   26184   26205       1   26160   26145   26163       1   26160   26181
   26199       1   26148   26139   26151       1   26148   26166   26187       1
   26142   26154   26172       1   26142   26157   26175       1   26136   26139
   26151       1   26136   26145   26163       1   26340   26331   26343       1
   26340   26334   26346       1   26334   26325   26337       1   26334   26340
   26349       1   26331   26340   26349       1   26325   26334   26346       1
   26322   26331   26343       1   26319   26301   26322       1   26310   26292
   26313       1   26310   26298   26316       1   26304   26289   26307       1
   26304   26325   26337       1   26298   26310   26328       1   26292   26274
   26295       1   26292   26310   26328       1   26286   26301   26319       1
   26283   26265   26286       1   26277   26262   26280       1   26277   26298
   26316       1   26274   26292   26313       1   26268   26253   26271       1
   26268   26289   26307       1   26256   26247   26259       1   26256   26274
   26295       1   26250   26262   26280       1   26250   26265   26283       1
   26244   26247   26259       1   26244   26253   26271       1   26448   26439
   26451       1   26448   26442   26454       1   26442   26433   26445       1
   26442   26448   26457       1   26439   26448   26457       1   26433   26442
   26454       1   26430   26439   26451       1   26427   26409   26430       1
   26418   26400   26421       1   26418   26406   26424       1   26412   26397
   26415       1   26412   26433   26445       1   26406   26418   26436       1
   26400   26382   26403       1   26400   26418   26436       1   26394   26409
   26427       1   26391   26373   26394       1   26385   26370   26388       1
   26385   26406   26424       1   26382   26400   26421       1   26376   26361
   26379       1   26376   26397   26415       1   26364   26355   26367       1
   26364   26382   26403       1   26358   26370   26388       1   26358   26373
   26391       1   26352   26355   26367       1   26352   26361   26379       1
   26556   26547   26559       1   26556   26550   26562       1   26550   26541
   26553       1   26550   26556   26565       1   26547   26556   26565       1
   26541   26550   26562       1   26538   26547   26559       1   26535   26517
   26538       1   26526   26508   26529       1   26526   26514   26532       1
   26520   26505   26523       1   26520   26541   26553       1   26514   26526
   26544       1   26508   26490   26511       1   26508   26526   26544       1
   26502   26517   26535       1   26499   26481   26502       1   26493   26478
   26496       1   26493   26514   26532       1   26490   26508   26529       1
   26484   26469   26487       1   26484   26505   26523       1   26472   26463
   26475       1   26472   26490   26511       1   26466   26478   26496       1
   26466   26481   26499       1   26460   26463   26475       1   26460   26469
   26487       1   26664   26655   26667       1   26664   26658   26670       1
   26658   26649   26661       1   26658   26664   26673       1   26655   26664
   26673       1   26649   26658   26670       1   26646   26655   26667       1
   26643   26625   26646       1   26634   26616   26637       1   26634   26622
   26640       1   26628   26613   26631       1   26628   26649   26661       1
   26622   26634   26652       1   26616   26598   26619       1   26616   26634
   26652       1   26610   26625   26643       1   26607   26589   26610       1
   26601   26586   26604       1   26601   26622   26640       1   26598   26616
   26637       1   26592   26577   26595       1   26592   26613   26631       1
   26580   26571   26583       1   26580   26598   26619       1   26574   26586
   26604       1   26574   26589   26607       1   26568   26571   26583       1
   26568   26577   26595       1   26772   26763   26775       1   26772   26766
   26778       1   26766   26757   26769       1   26766   26772   26781       1
   26763   26772   26781       1   26757   26766   26778       1   26754   26763
   26775       1   26751   26733   26754       1   26742   26724   26745       1
   26742   26730   26748       1   26736   26721   26739       1   26736   26757
   26769       1   26730   26742   26760       1   26724   26706   26727       1
   26724   26742   26760       1   26718   26733   26751       1   26715   26697
   26718       1   26709   26694   26712       1   26709   26730   26748       1
   26706   26724   26745       1   26700   26685   26703       1   26700   26721
   26739       1   26688   26679   26691       1   26688   26706   26727       1
   26682   26694   26712       1   26682   26697   26715       1   26676   26679
   26691       1   26676   26685   26703       1   26880   26871   26883       1
   26880   26874   26886       1   26874   26865   26877       1   26874   26880
   26889       1   26871   26880   26889       1   26865   26874   26886       1
   26862   26871   26883       1   26859   26841   26862       1   26850   26832
   26853       1   26850   26838   26856       1   26844   26829   26847       1
   26844   26865   26877       1   26838   26850   26868       1   26832   26814
   26835       1   26832   26850   26868       1   26826   26841   26859       1
   26823   26805   26826       1   26817   26802   26820       1   26817   26838
   26856       1   26814   26832   26853       1   26808   26793   26811       1
   26808   26829   26847       1   26796   26787   26799       1   26796   26814
   26835       1   26790   26802   26820       1   26790   26805   26823       1
   26784   26787   26799       1   26784   26793   26811       1   26988   26979
   26991       1   26988   26982   26994       1   26982   26973   26985       1
   26982   26988   26997       1   26979   26988   26997       1   26973   26982
   26994       1   26970   26979   26991       1   26967   26949   26970       1
   26958   26940   26961       1   26958   26946   26964       1   26952   26937
   26955       1   26952   26973   26985       1   26946   26958   26976       1
   26940   26922   26943       1   26940   26958   26976       1   26934   26949
   26967       1   26931   26913   26934       1   26925   26910   26928       1
   26925   26946   26964       1   26922   26940   26961       1   26916   26901
   26919       1   26916   26937   26955       1   26904   26895   26907       1
   26904   26922   26943       1   26898   26910   26928       1   26898   26913
   26931       1   26892   26895   26907       1   26892   26901   26919       1
%FLAG ANGLES_WITHOUT_HYDROGEN                                                   
%FORMAT(10I8)                                                                   
      87      96      90       2      81      90      96       2      78      60
      81       2      78      87      96       2      60      78      87       2
      60      81      90       2      57      78      60       2      57      78
      87       2      48      66      54       2      45      60      78       2
      45      60      81       2      42      24      45       2      42      57
      78       2      33      54      66       2      30      12      33       2
      30      48      66       2      24      42      57       2      24      45
      60       2      21      42      24       2      21      42      57       2
      18       6      21       2      18      33      54       2      12      30
      48       2      12      33      18       2      12      33      54       2
       9      24      42       2       9      24      45       2       6       0
       9       2       6      18      33       2       6      21      42       2
       3       0       6       2       3       0       9       2       3      12
      30       2       3      12      33       2       0       3      12       2
       0       6      18       2       0       6      21       2       0       9
      24       2     195     204     198       2     189     198     204       2
     186     168     189       2     186     195     204       2     168     186
     195       2     168     189     198       2     165     186     168       2
     165     186     195       2     156     174     162       2     153     168
     186       2     153     168     189       2     150     132     153       2
     150     165     186       2     141     162     174       2     138     120
     141       2     138     156     174       2     132     150     165       2
     132     153     168       2     129     150     132       2     129     150
     165       2     126     114     129       2     126     141     162       2
     120     138     156       2     120     141     126       2     120     141
     162       2     117     132     150       2     117     132     153       2
     114     108     117       2     114     126     141       2     114     129
     150       2     111     108     114       2     111     108     117       2
     111     120     138       2     111     120     141       2     108     111
     120       2     108     114     126       2     108     114     129       2
     108     117     132       2     303     312     306       2     297     306
     312       2     294     276     297       2     294     303     312       2
     276     294     303       2     276     297     306       2     273     294
     276       2     273     294     303       2     264     282     270       2
     261     276     294       2     261     276     297       2     258     240
     261       2     258     273     294       2     249     270     282       2
     246     228     249       2     246     264     282       2     240     258
     273       2     240     261     276       2     237     258     240       2
     237     258     273       2     234     222     237       2     234     249
     270       2     228     246     264       2     228     249     234       2
     228     249     270       2     225     240     258       2     225     240
     261       2     222     216     225       2     222     234     249       2
     222     237     258       2     219     216     222       2     219     216
     225       2     219     228     246       2     219     228     249       2
     216     219     228       2     216     222     234       2     216     222
     237       2     216     225     240       2     411     420     414       2
     405     414     420       2     402     384     405       2     402     411
     420       2     384     402     411       2     384     405     414       2
     381     402     384       2     381     402     411       2     372     390
     378       2     369     384     402       2     369     384     405       2
     366     348     369       2     366     381     402       2     357     378
     390       2     354     336     357       2     354     372     390       2
     348     366     381       2     348     369     384       2     345     366
     348       2     345     366     381       2     342     330     345       2
     342     357     378       2     336     354     372       2     336     357
     342       2     336     357     378       2     333     348     366       2
     333     348     369       2     330     324     333       2     330     342
     357       2     330     345     366       2     327     324     330       2
     327     324     333       2     327     336     354       2     327     336
     357       2     324     327     336       2     324     330     342       2
     324     330     345       2     324     333     348       2     519     528
     522       2     513     522     528       2     510     492     513       2
     510     519     528       2     492     510     519       2     492     513
     522       2     489     510     492       2     489     510     519       2
     480     498     486       2     477     492     510       2     477     492
     513       2     474     456     477       2     474     489     510       2
     465     486     498       2     462     444     465       2     462     480
     498       2     456     474     489       2     456     477     492       2
     453     474     456       2     453     474     489       2     450     438
     453       2     450     465     486       2     444     462     480       2
     444     465     450       2     444     465     486       2     441     456
     474       2     441     456     477       2     438     432     441       2
     438     450     465       2     438     453     474       2     435     432
     438       2     435     432     441       2     435     444     462       2
     435     444     465       2     432     435     444       2     432     438
     450       2     432     438     453       2     432     441     456       2
     627     636     630       2     621     630     636       2     618     600
     621       2     618     627     636       2     600     618     627       2
     600     621     630       2     597     618     600       2     597     618
     627       2     588     606     594       2     585     600     618       2
     585     600     621       2     582     564     585       2     582     597
     618       2     573     594     606       2     570     552     573       2
     570     588     606       2     564     582     597       2     564     585
     600       2     561     582     564       2     561     582     597       2
     558     546     561       2     558     573     594       2     552     570
     588       2     552     573     558       2     552     573     594       2
     549     564     582       2     549     564     585       2     546     540
     549       2     546     558     573       2     546     561     582       2
     543     540     546       2     543     540     549       2     543     552
     570       2     543     552     573       2     540     543     552       2
     540     546     558       2     540     546     561       2     540     549
     564       2     735     744     738       2     729     738     744       2
     726     708     729       2     726     735     744       2     708     726
     735       2     708     729     738       2     705     726     708       2
     705     726     735       2     696     714     702       2     693     708
     726       2     693     708     729       2     690     672     693       2
     690     705     726       2     681     702     714       2     678     660
     681       2     678     696     714       2     672     690     705       2
     672     693     708       2     669     690     672       2     669     690
     705       2     666     654     669       2     666     681     702       2
     660     678     696       2     660     681     666       2     660     681
     702       2     657     672     690       2     657     672     693       2
     654     648     657       2     654     666     681       2     654     669
     690       2     651     648     654       2     651     648     657       2
     651     660     678       2     651     660     681       2     648     651
     660       2     648     654     666       2     648     654     669       2
     648     657     672       2     843     852     846       2     837     846
     852       2     834     816     837       2     834     843     852       2
     816     834     843       2     816     837     846       2     813     834
     816       2     813     834     843       2     804     822     810       2
     801     816     834       2     801     816     837       2     798     780
     801       2     798     813     834       2     789     810     822       2
     786     768     789       2     786     804     822       2     780     798
     813       2     780     801     816       2     777     798     780       2
     777     798     813       2     774     762     777       2     774     789
     810       2     768     786     804       2     768     789     774       2
     768     789     810       2     765     780     798       2     765     780
     801       2     762     756     765       2     762     774     789       2
     762     777     798       2     759     756     762       2     759     756
     765       2     759     768     786       2     759     768     789       2
     756     759     768       2     756     762     774       2     756     762
     777       2     756     765     780       2     951     960     954       2
     945     954     960       2     942     924     945       2     942     951
     960       2     924     942     951       2     924     945     954       2
     921     942     924       2     921     942     951       2     912     930
     918       2     909     924     942       2     909     924     945       2
     906     888     909       2     906     921     942       2     897     918
     930       2     894     876     897       2     894     912     930       2
     888     906     921       2     888     909     924       2     885     906
     888       2     885     906     921       2     882     870     885       2
     882     897     918       2     876     894     912       2     876     897
     882       2     876     897     918       2     873     888     906       2
     873     888     909       2     870     864     873       2     870     882
     897       2     870     885     906       2     867     864     870       2
     867     864     873       2     867     876     894       2     867     876
     897       2     864     867     876       2     864     870     882       2
     864     870     885       2     864     873     888       2    1059    1068
    1062       2    1053    1062    1068       2    1050    1032    1053       2
    1050    1059    1068       2    1032    1050    1059       2    1032    1053
    1062       2    1029    1050    1032       2    1029    1050    1059       2
    1020    1038    1026       2    1017    1032    1050       2    1017    1032
    1053       2    1014     996    1017       2    1014    1029    1050       2
    1005    1026    1038       2    1002     984    1005       2    1002    1020
    1038       2     996    1014    1029       2     996    1017    1032       2
     993    1014     996       2     993    1014    1029       2     990     978
     993       2     990    1005    1026       2     984    1002    1020       2
     984    1005     990       2     984    1005    1026       2     981     996
    1014       2     981     996    1017       2     978     972     981       2
     978     990    1005       2     978     993    1014       2     975     972
     978       2     975     972     981       2     975     984    1002       2
     975     984    1005       2     972     975     984       2     972     978
     990       2     972     978     993       2     972     981     996       2
    1167    1176    1170       2    1161    1170    1176       2    1158    1140
    1161       2    1158    1167    1176       2    1140    1158    1167       2
    1140    1161    1170       2    1137    1158    1140       2    1137    1158
    1167       2    1128    1146    1134       2    1125    1140    1158       2
    1125    1140    1161       2    1122    1104    1125       2    1122    1137
    1158       2    1113    1134    1146       2    1110    1092    1113       2
    1110    1128    1146       2    1104    1122    1137       2    1104    1125
    1140       2    1101    1122    1104       2    1101    1122    1137       2
    1098    1086    1101       2    1098    1113    1134       2    1092    1110
    1128       2    1092    1113    1098       2    1092    1113    1134       2
    1089    1104    1122       2    1089    1104    1125       2    1086    1080
    1089       2    1086    1098    1113       2    1086    1101    1122       2
    1083    1080    1086       2    1083    1080    1089       2    1083    1092
    1110       2    1083    1092    1113       2    1080    1083    1092       2
    1080    1086    1098       2    1080    1086    1101       2    1080    1089
    1104       2    1275    1284    1278       2    1269    1278    1284       2
    1266    1248    1269       2    1266    1275    1284       2    1248    1266
    1275       2    1248    1269    1278       2    1245    1266    1248       2
    1245    1266    1275       2    1236    1254    1242       2    1233    1248
    1266       2    1233    1248    1269       2    1230    1212    1233       2
    1230    1245    1266       2    1221    1242    1254       2    1218    1200
    1221       2    1218    1236    1254       2    1212    1230    1245       2
    1212    1233    1248       2    1209    1230    1212       2    1209    1230
    1245       2    1206    1194    1209       2    1206    1221    1242       2
    1200    1218    1236       2    1200    1221    1206       2    1200    1221
    1242       2    1197    1212    1230       2    1197    1212    1233       2
    1194    1188    1197       2    1194    1206    1221       2    1194    1209
    1230       2    1191    1188    1194       2    1191    1188    1197       2
    1191    1200    1218       2    1191    1200    1221       2    1188    1191
    1200       2    1188    1194    1206       2    1188    1194    1209       2
    1188    1197    1212       2    1383    1392    1386       2    1377    1386
    1392       2    1374    1356    1377       2    1374    1383    1392       2
    1356    1374    1383       2    1356    1377    1386       2    1353    1374
    1356       2    1353    1374    1383       2    1344    1362    1350       2
    1341    1356    1374       2    1341    1356    1377       2    1338    1320
    1341       2    1338    1353    1374       2    1329    1350    1362       2
    1326    1308    1329       2    1326    1344    1362       2    1320    1338
    1353       2    1320    1341    1356       2    1317    1338    1320       2
    1317    1338    1353       2    1314    1302    1317       2    1314    1329
    1350       2    1308    1326    1344       2    1308    1329    1314       2
    1308    1329    1350       2    1305    1320    1338       2    1305    1320
    1341       2    1302    1296    1305       2    1302    1314    1329       2
    1302    1317    1338       2    1299    1296    1302       2    1299    1296
    1305       2    1299    1308    1326       2    1299    1308    1329       2
    1296    1299    1308       2    1296    1302    1314       2    1296    1302
    1317       2    1296    1305    1320       2    1491    1500    1494       2
    1485    1494    1500       2    1482    1464    1485       2    1482    1491
    1500       2    1464    1482    1491       2    1464    1485    1494       2
    1461    1482    1464       2    1461    1482    1491       2    1452    1470
    1458       2    1449    1464    1482       2    1449    1464    1485       2
    1446    1428    1449       2    1446    1461    1482       2    1437    1458
    1470       2    1434    1416    1437       2    1434    1452    1470       2
    1428    1446    1461       2    1428    1449    1464       2    1425    1446
    1428       2    1425    1446    1461       2    1422    1410    1425       2
    1422    1437    1458       2    1416    1434    1452       2    1416    1437
    1422       2    1416    1437    1458       2    1413    1428    1446       2
    1413    1428    1449       2    1410    1404    1413       2    1410    1422
    1437       2    1410    1425    1446       2    1407    1404    1410       2
    1407    1404    1413       2    1407    1416    1434       2    1407    1416
    1437       2    1404    1407    1416       2    1404    1410    1422       2
    1404    1410    1425       2    1404    1413    1428       2    1599    1608
    1602       2    1593    1602    1608       2    1590    1572    1593       2
    1590    1599    1608       2    1572    1590    1599       2    1572    1593
    1602       2    1569    1590    1572       2    1569    1590    1599       2
    1560    1578    1566       2    1557    1572    1590       2    1557    1572
    1593       2    1554    1536    1557       2    1554    1569    1590       2
    1545    1566    1578       2    1542    1524    1545       2    1542    1560
    1578       2    1536    1554    1569       2    1536    1557    1572       2
    1533    1554    1536       2    1533    1554    1569       2    1530    1518
    1533       2    1530    1545    1566       2    1524    1542    1560       2
    1524    1545    1530       2    1524    1545    1566       2    1521    1536
    1554       2    1521    1536    1557       2    1518    1512    1521       2
    1518    1530    1545       2    1518    1533    1554       2    1515    1512
    1518       2    1515    1512    1521       2    1515    1524    1542       2
    1515    1524    1545       2    1512    1515    1524       2    1512    1518
    1530       2    1512    1518    1533       2    1512    1521    1536       2
    1707    1716    1710       2    1701    1710    1716       2    1698    1680
    1701       2    1698    1707    1716       2    1680    1698    1707       2
    1680    1701    1710       2    1677    1698    1680       2    1677    1698
    1707       2    1668    1686    1674       2    1665    1680    1698       2
    1665    1680    1701       2    1662    1644    1665       2    1662    1677
    1698       2    1653    1674    1686       2    1650    1632    1653       2
    1650    1668    1686       2    1644    1662    1677       2    1644    1665
    1680       2    1641    1662    1644       2    1641    1662    1677       2
    1638    1626    1641       2    1638    1653    1674       2    1632    1650
    1668       2    1632    1653    1638       2    1632    1653    1674       2
    1629    1644    1662       2    1629    1644    1665       2    1626    1620
    1629       2    1626    1638    1653       2    1626    1641    1662       2
    1623    1620    1626       2    1623    1620    1629       2    1623    1632
    1650       2    1623    1632    1653       2    1620    1623    1632       2
    1620    1626    1638       2    1620    1626    1641       2    1620    1629
    1644       2    1815    1824    1818       2    1809    1818    1824       2
    1806    1788    1809       2    1806    1815    1824       2    1788    1806
    1815       2    1788    1809    1818       2    1785    1806    1788       2
    1785    1806    1815       2    1776    1794    1782       2    1773    1788
    1806       2    1773    1788    1809       2    1770    1752    1773       2
    1770    1785    1806       2    1761    1782    1794       2    1758    1740
    1761       2    1758    1776    1794       2    1752    1770    1785       2
    1752    1773    1788       2    1749    1770    1752       2    1749    1770
    1785       2    1746    1734    1749       2    1746    1761    1782       2
    1740    1758    1776       2    1740    1761    1746       2    1740    1761
    1782       2    1737    1752    1770       2    1737    1752    1773       2
    1734    1728    1737       2    1734    1746    1761       2    1734    1749
    1770       2    1731    1728    1734       2    1731    1728    1737       2
    1731    1740    1758       2    1731    1740    1761       2    1728    1731
    1740       2    1728    1734    1746       2    1728    1734    1749       2
    1728    1737    1752       2    1923    1932    1926       2    1917    1926
    1932       2    1914    1896    1917       2    1914    1923    1932       2
    1896    1914    1923       2    1896    1917    1926       2    1893    1914
    1896       2    1893    1914    1923       2    1884    1902    1890       2
    1881    1896    1914       2    1881    1896    1917       2    1878    1860
    1881       2    1878    1893    1914       2    1869    1890    1902       2
    1866    1848    1869       2    1866    1884    1902       2    1860    1878
    1893       2    1860    1881    1896       2    1857    1878    1860       2
    1857    1878    1893       2    1854    1842    1857       2    1854    1869
    1890       2    1848    1866    1884       2    1848    1869    1854       2
    1848    1869    1890       2    1845    1860    1878       2    1845    1860
    1881       2    1842    1836    1845       2    1842    1854    1869       2
    1842    1857    1878       2    1839    1836    1842       2    1839    1836
    1845       2    1839    1848    1866       2    1839    1848    1869       2
    1836    1839    1848       2    1836    1842    1854       2    1836    1842
    1857       2    1836    1845    1860       2    2031    2040    2034       2
    2025    2034    2040       2    2022    2004    2025       2    2022    2031
    2040       2    2004    2022    2031       2    2004    2025    2034       2
    2001    2022    2004       2    2001    2022    2031       2    1992    2010
    1998       2    1989    2004    2022       2    1989    2004    2025       2
    1986    1968    1989       2    1986    2001    2022       2    1977    1998
    2010       2    1974    1956    1977       2    1974    1992    2010       2
    1968    1986    2001       2    1968    1989    2004       2    1965    1986
    1968       2    1965    1986    2001       2    1962    1950    1965       2
    1962    1977    1998       2    1956    1974    1992       2    1956    1977
    1962       2    1956    1977    1998       2    1953    1968    1986       2
    1953    1968    1989       2    1950    1944    1953       2    1950    1962
    1977       2    1950    1965    1986       2    1947    1944    1950       2
    1947    1944    1953       2    1947    1956    1974       2    1947    1956
    1977       2    1944    1947    1956       2    1944    1950    1962       2
    1944    1950    1965       2    1944    1953    1968       2    2139    2148
    2142       2    2133    2142    2148       2    2130    2112    2133       2
    2130    2139    2148       2    2112    2130    2139       2    2112    2133
    2142       2    2109    2130    2112       2    2109    2130    2139       2
    2100    2118    2106       2    2097    2112    2130       2    2097    2112
    2133       2    2094    2076    2097       2    2094    2109    2130       2
    2085    2106    2118       2    2082    2064    2085       2    2082    2100
    2118       2    2076    2094    2109       2    2076    2097    2112       2
    2073    2094    2076       2    2073    2094    2109       2    2070    2058
    2073       2    2070    2085    2106       2    2064    2082    2100       2
    2064    2085    2070       2    2064    2085    2106       2    2061    2076
    2094       2    2061    2076    2097       2    2058    2052    2061       2
    2058    2070    2085       2    2058    2073    2094       2    2055    2052
    2058       2    2055    2052    2061       2    2055    2064    2082       2
    2055    2064    2085       2    2052    2055    2064       2    2052    2058
    2070       2    2052    2058    2073       2    2052    2061    2076       2
    2247    2256    2250       2    2241    2250    2256       2    2238    2220
    2241       2    2238    2247    2256       2    2220    2238    2247       2
    2220    2241    2250       2    2217    2238    2220       2    2217    2238
    2247       2    2208    2226    2214       2    2205    2220    2238       2
    2205    2220    2241       2    2202    2184    2205       2    2202    2217
    2238       2    2193    2214    2226       2    2190    2172    2193       2
    2190    2208    2226       2    2184    2202    2217       2    2184    2205
    2220       2    2181    2202    2184       2    2181    2202    2217       2
    2178    2166    2181       2    2178    2193    2214       2    2172    2190
    2208       2    2172    2193    2178       2    2172    2193    2214       2
    2169    2184    2202       2    2169    2184    2205       2    2166    2160
    2169       2    2166    2178    2193       2    2166    2181    2202       2
    2163    2160    2166       2    2163    2160    2169       2    2163    2172
    2190       2    2163    2172    2193       2    2160    2163    2172       2
    2160    2166    2178       2    2160    2166    2181       2    2160    2169
    2184       2    2355    2364    2358       2    2349    2358    2364       2
    2346    2328    2349       2    2346    2355    2364       2    2328    2346
    2355       2    2328    2349    2358       2    2325    2346    2328       2
    2325    2346    2355       2    2316    2334    2322       2    2313    2328
    2346       2    2313    2328    2349       2    2310    2292    2313       2
    2310    2325    2346       2    2301    2322    2334       2    2298    2280
    2301       2    2298    2316    2334       2    2292    2310    2325       2
    2292    2313    2328       2    2289    2310    2292       2    2289    2310
    2325       2    2286    2274    2289       2    2286    2301    2322       2
    2280    2298    2316       2    2280    2301    2286       2    2280    2301
    2322       2    2277    2292    2310       2    2277    2292    2313       2
    2274    2268    2277       2    2274    2286    2301       2    2274    2289
    2310       2    2271    2268    2274       2    2271    2268    2277       2
    2271    2280    2298       2    2271    2280    2301       2    2268    2271
    2280       2    2268    2274    2286       2    2268    2274    2289       2
    2268    2277    2292       2    2463    2472    2466       2    2457    2466
    2472       2    2454    2436    2457       2    2454    2463    2472       2
    2436    2454    2463       2    2436    2457    2466       2    2433    2454
    2436       2    2433    2454    2463       2    2424    2442    2430       2
    2421    2436    2454       2    2421    2436    2457       2    2418    2400
    2421       2    2418    2433    2454       2    2409    2430    2442       2
    2406    2388    2409       2    2406    2424    2442       2    2400    2418
    2433       2    2400    2421    2436       2    2397    2418    2400       2
    2397    2418    2433       2    2394    2382    2397       2    2394    2409
    2430       2    2388    2406    2424       2    2388    2409    2394       2
    2388    2409    2430       2    2385    2400    2418       2    2385    2400
    2421       2    2382    2376    2385       2    2382    2394    2409       2
    2382    2397    2418       2    2379    2376    2382       2    2379    2376
    2385       2    2379    2388    2406       2    2379    2388    2409       2
    2376    2379    2388       2    2376    2382    2394       2    2376    2382
    2397       2    2376    2385    2400       2    2571    2580    2574       2
    2565    2574    2580       2    2562    2544    2565       2    2562    2571
    2580       2    2544    2562    2571       2    2544    2565    2574       2
    2541    2562    2544       2    2541    2562    2571       2    2532    2550
    2538       2    2529    2544    2562       2    2529    2544    2565       2
    2526    2508    2529       2    2526    2541    2562       2    2517    2538
    2550       2    2514    2496    2517       2    2514    2532    2550       2
    2508    2526    2541       2    2508    2529    2544       2    2505    2526
    2508       2    2505    2526    2541       2    2502    2490    2505       2
    2502    2517    2538       2    2496    2514    2532       2    2496    2517
    2502       2    2496    2517    2538       2    2493    2508    2526       2
    2493    2508    2529       2    2490    2484    2493       2    2490    2502
    2517       2    2490    2505    2526       2    2487    2484    2490       2
    2487    2484    2493       2    2487    2496    2514       2    2487    2496
    2517       2    2484    2487    2496       2    2484    2490    2502       2
    2484    2490    2505       2    2484    2493    2508       2    2679    2688
    2682       2    2673    2682    2688       2    2670    2652    2673       2
    2670    2679    2688       2    2652    2670    2679       2    2652    2673
    2682       2    2649    2670    2652       2    2649    2670    2679       2
    2640    2658    2646       2    2637    2652    2670       2    2637    2652
    2673       2    2634    2616    2637       2    2634    2649    2670       2
    2625    2646    2658       2    2622    2604    2625       2    2622    2640
    2658       2    2616    2634    2649       2    2616    2637    2652       2
    2613    2634    2616       2    2613    2634    2649       2    2610    2598
    2613       2    2610    2625    2646       2    2604    2622    2640       2
    2604    2625    2610       2    2604    2625    2646       2    2601    2616
    2634       2    2601    2616    2637       2    2598    2592    2601       2
    2598    2610    2625       2    2598    2613    2634       2    2595    2592
    2598       2    2595    2592    2601       2    2595    2604    2622       2
    2595    2604    2625       2    2592    2595    2604       2    2592    2598
    2610       2    2592    2598    2613       2    2592    2601    2616       2
    2787    2796    2790       2    2781    2790    2796       2    2778    2760
    2781       2    2778    2787    2796       2    2760    2778    2787       2
    2760    2781    2790       2    2757    2778    2760       2    2757    2778
    2787       2    2748    2766    2754       2    2745    2760    2778       2
    2745    2760    2781       2    2742    2724    2745       2    2742    2757
    2778       2    2733    2754    2766       2    2730    2712    2733       2
    2730    2748    2766       2    2724    2742    2757       2    2724    2745
    2760       2    2721    2742    2724       2    2721    2742    2757       2
    2718    2706    2721       2    2718    2733    2754       2    2712    2730
    2748       2    2712    2733    2718       2    2712    2733    2754       2
    2709    2724    2742       2    2709    2724    2745       2    2706    2700
    2709       2    2706    2718    2733       2    2706    2721    2742       2
    2703    2700    2706       2    2703    2700    2709       2    2703    2712
    2730       2    2703    2712    2733       2    2700    2703    2712       2
    2700    2706    2718       2    2700    2706    2721       2    2700    2709
    2724       2    2895    2904    2898       2    2889    2898    2904       2
    2886    2868    2889       2    2886    2895    2904       2    2868    2886
    2895       2    2868    2889    2898       2    2865    2886    2868       2
    2865    2886    2895       2    2856    2874    2862       2    2853    2868
    2886       2    2853    2868    2889       2    2850    2832    2853       2
    2850    2865    2886       2    2841    2862    2874       2    2838    2820
    2841       2    2838    2856    2874       2    2832    2850    2865       2
    2832    2853    2868       2    2829    2850    2832       2    2829    2850
    2865       2    2826    2814    2829       2    2826    2841    2862       2
    2820    2838    2856       2    2820    2841    2826       2    2820    2841
    2862       2    2817    2832    2850       2    2817    2832    2853       2
    2814    2808    2817       2    2814    2826    2841       2    2814    2829
    2850       2    2811    2808    2814       2    2811    2808    2817       2
    2811    2820    2838       2    2811    2820    2841       2    2808    2811
    2820       2    2808    2814    2826       2    2808    2814    2829       2
    2808    2817    2832       2    3003    3012    3006       2    2997    3006
    3012       2    2994    2976    2997       2    2994    3003    3012       2
    2976    2994    3003       2    2976    2997    3006       2    2973    2994
    2976       2    2973    2994    3003       2    2964    2982    2970       2
    2961    2976    2994       2    2961    2976    2997       2    2958    2940
    2961       2    2958    2973    2994       2    2949    2970    2982       2
    2946    2928    2949       2    2946    2964    2982       2    2940    2958
    2973       2    2940    2961    2976       2    2937    2958    2940       2
    2937    2958    2973       2    2934    2922    2937       2    2934    2949
    2970       2    2928    2946    2964       2    2928    2949    2934       2
    2928    2949    2970       2    2925    2940    2958       2    2925    2940
    2961       2    2922    2916    2925       2    2922    2934    2949       2
    2922    2937    2958       2    2919    2916    2922       2    2919    2916
    2925       2    2919    2928    2946       2    2919    2928    2949       2
    2916    2919    2928       2    2916    2922    2934       2    2916    2922
    2937       2    2916    2925    2940       2    3111    3120    3114       2
    3105    3114    3120       2    3102    3084    3105       2    3102    3111
    3120       2    3084    3102    3111       2    3084    3105    3114       2
    3081    3102    3084       2    3081    3102    3111       2    3072    3090
    3078       2    3069    3084    3102       2    3069    3084    3105       2
    3066    3048    3069       2    3066    3081    3102       2    3057    3078
    3090       2    3054    3036    3057       2    3054    3072    3090       2
    3048    3066    3081       2    3048    3069    3084       2    3045    3066
    3048       2    3045    3066    3081       2    3042    3030    3045       2
    3042    3057    3078       2    3036    3054    3072       2    3036    3057
    3042       2    3036    3057    3078       2    3033    3048    3066       2
    3033    3048    3069       2    3030    3024    3033       2    3030    3042
    3057       2    3030    3045    3066       2    3027    3024    3030       2
    3027    3024    3033       2    3027    3036    3054       2    3027    3036
    3057       2    3024    3027    3036       2    3024    3030    3042       2
    3024    3030    3045       2    3024    3033    3048       2    3219    3228
    3222       2    3213    3222    3228       2    3210    3192    3213       2
    3210    3219    3228       2    3192    3210    3219       2    3192    3213
    3222       2    3189    3210    3192       2    3189    3210    3219       2
    3180    3198    3186       2    3177    3192    3210       2    3177    3192
    3213       2    3174    3156    3177       2    3174    3189    3210       2
    3165    3186    3198       2    3162    3144    3165       2    3162    3180
    3198       2    3156    3174    3189       2    3156    3177    3192       2
    3153    3174    3156       2    3153    3174    3189       2    3150    3138
    3153       2    3150    3165    3186       2    3144    3162    3180       2
    3144    3165    3150       2    3144    3165    3186       2    3141    3156
    3174       2    3141    3156    3177       2    3138    3132    3141       2
    3138    3150    3165       2    3138    3153    3174       2    3135    3132
    3138       2    3135    3132    3141       2    3135    3144    3162       2
    3135    3144    3165       2    3132    3135    3144       2    3132    3138
    3150       2    3132    3138    3153       2    3132    3141    3156       2
    3327    3336    3330       2    3321    3330    3336       2    3318    3300
    3321       2    3318    3327    3336       2    3300    3318    3327       2
    3300    3321    3330       2    3297    3318    3300       2    3297    3318
    3327       2    3288    3306    3294       2    3285    3300    3318       2
    3285    3300    3321       2    3282    3264    3285       2    3282    3297
    3318       2    3273    3294    3306       2    3270    3252    3273       2
    3270    3288    3306       2    3264    3282    3297       2    3264    3285
    3300       2    3261    3282    3264       2    3261    3282    3297       2
    3258    3246    3261       2    3258    3273    3294       2    3252    3270
    3288       2    3252    3273    3258       2    3252    3273    3294       2
    3249    3264    3282       2    3249    3264    3285       2    3246    3240
    3249       2    3246    3258    3273       2    3246    3261    3282       2
    3243    3240    3246       2    3243    3240    3249       2    3243    3252
    3270       2    3243    3252    3273       2    3240    3243    3252       2
    3240    3246    3258       2    3240    3246    3261       2    3240    3249
    3264       2    3435    3444    3438       2    3429    3438    3444       2
    3426    3408    3429       2    3426    3435    3444       2    3408    3426
    3435       2    3408    3429    3438       2    3405    3426    3408       2
    3405    3426    3435       2    3396    3414    3402       2    3393    3408
    3426       2    3393    3408    3429       2    3390    3372    3393       2
    3390    3405    3426       2    3381    3402    3414       2    3378    3360
    3381       2    3378    3396    3414       2    3372    3390    3405       2
    3372    3393    3408       2    3369    3390    3372       2    3369    3390
    3405       2    3366    3354    3369       2    3366    3381    3402       2
    3360    3378    3396       2    3360    3381    3366       2    3360    3381
    3402       2    3357    3372    3390       2    3357    3372    3393       2
    3354    3348    3357       2    3354    3366    3381       2    3354    3369
    3390       2    3351    3348    3354       2    3351    3348    3357       2
    3351    3360    3378       2    3351    3360    3381       2    3348    3351
    3360       2    3348    3354    3366       2    3348    3354    3369       2
    3348    3357    3372       2    3543    3552    3546       2    3537    3546
    3552       2    3534    3516    3537       2    3534    3543    3552       2
    3516    3534    3543       2    3516    3537    3546       2    3513    3534
    3516       2    3513    3534    3543       2    3504    3522    3510       2
    3501    3516    3534       2    3501    3516    3537       2    3498    3480
    3501       2    3498    3513    3534       2    3489    3510    3522       2
    3486    3468    3489       2    3486    3504    3522       2    3480    3498
    3513       2    3480    3501    3516       2    3477    3498    3480       2
    3477    3498    3513       2    3474    3462    3477       2    3474    3489
    3510       2    3468    3486    3504       2    3468    3489    3474       2
    3468    3489    3510       2    3465    3480    3498       2    3465    3480
    3501       2    3462    3456    3465       2    3462    3474    3489       2
    3462    3477    3498       2    3459    3456    3462       2    3459    3456
    3465       2    3459    3468    3486       2    3459    3468    3489       2
    3456    3459    3468       2    3456    3462    3474       2    3456    3462
    3477       2    3456    3465    3480       2    3651    3660    3654       2
    3645    3654    3660       2    3642    3624    3645       2    3642    3651
    3660       2    3624    3642    3651       2    3624    3645    3654       2
    3621    3642    3624       2    3621    3642    3651       2    3612    3630
    3618       2    3609    3624    3642       2    3609    3624    3645       2
    3606    3588    3609       2    3606    3621    3642       2    3597    3618
    3630       2    3594    3576    3597       2    3594    3612    3630       2
    3588    3606    3621       2    3588    3609    3624       2    3585    3606
    3588       2    3585    3606    3621       2    3582    3570    3585       2
    3582    3597    3618       2    3576    3594    3612       2    3576    3597
    3582       2    3576    3597    3618       2    3573    3588    3606       2
    3573    3588    3609       2    3570    3564    3573       2    3570    3582
    3597       2    3570    3585    3606       2    3567    3564    3570       2
    3567    3564    3573       2    3567    3576    3594       2    3567    3576
    3597       2    3564    3567    3576       2    3564    3570    3582       2
    3564    3570    3585       2    3564    3573    3588       2    3759    3768
    3762       2    3753    3762    3768       2    3750    3732    3753       2
    3750    3759    3768       2    3732    3750    3759       2    3732    3753
    3762       2    3729    3750    3732       2    3729    3750    3759       2
    3720    3738    3726       2    3717    3732    3750       2    3717    3732
    3753       2    3714    3696    3717       2    3714    3729    3750       2
    3705    3726    3738       2    3702    3684    3705       2    3702    3720
    3738       2    3696    3714    3729       2    3696    3717    3732       2
    3693    3714    3696       2    3693    3714    3729       2    3690    3678
    3693       2    3690    3705    3726       2    3684    3702    3720       2
    3684    3705    3690       2    3684    3705    3726       2    3681    3696
    3714       2    3681    3696    3717       2    3678    3672    3681       2
    3678    3690    3705       2    3678    3693    3714       2    3675    3672
    3678       2    3675    3672    3681       2    3675    3684    3702       2
    3675    3684    3705       2    3672    3675    3684       2    3672    3678
    3690       2    3672    3678    3693       2    3672    3681    3696       2
    3867    3876    3870       2    3861    3870    3876       2    3858    3840
    3861       2    3858    3867    3876       2    3840    3858    3867       2
    3840    3861    3870       2    3837    3858    3840       2    3837    3858
    3867       2    3828    3846    3834       2    3825    3840    3858       2
    3825    3840    3861       2    3822    3804    3825       2    3822    3837
    3858       2    3813    3834    3846       2    3810    3792    3813       2
    3810    3828    3846       2    3804    3822    3837       2    3804    3825
    3840       2    3801    3822    3804       2    3801    3822    3837       2
    3798    3786    3801       2    3798    3813    3834       2    3792    3810
    3828       2    3792    3813    3798       2    3792    3813    3834       2
    3789    3804    3822       2    3789    3804    3825       2    3786    3780
    3789       2    3786    3798    3813       2    3786    3801    3822       2
    3783    3780    3786       2    3783    3780    3789       2    3783    3792
    3810       2    3783    3792    3813       2    3780    3783    3792       2
    3780    3786    3798       2    3780    3786    3801       2    3780    3789
    3804       2    3975    3984    3978       2    3969    3978    3984       2
    3966    3948    3969       2    3966    3975    3984       2    3948    3966
    3975       2    3948    3969    3978       2    3945    3966    3948       2
    3945    3966    3975       2    3936    3954    3942       2    3933    3948
    3966       2    3933    3948    3969       2    3930    3912    3933       2
    3930    3945    3966       2    3921    3942    3954       2    3918    3900
    3921       2    3918    3936    3954       2    3912    3930    3945       2
    3912    3933    3948       2    3909    3930    3912       2    3909    3930
    3945       2    3906    3894    3909       2    3906    3921    3942       2
    3900    3918    3936       2    3900    3921    3906       2    3900    3921
    3942       2    3897    3912    3930       2    3897    3912    3933       2
    3894    3888    3897       2    3894    3906    3921       2    3894    3909
    3930       2    3891    3888    3894       2    3891    3888    3897       2
    3891    3900    3918       2    3891    3900    3921       2    3888    3891
    3900       2    3888    3894    3906       2    3888    3894    3909       2
    3888    3897    3912       2    4083    4092    4086       2    4077    4086
    4092       2    4074    4056    4077       2    4074    4083    4092       2
    4056    4074    4083       2    4056    4077    4086       2    4053    4074
    4056       2    4053    4074    4083       2    4044    4062    4050       2
    4041    4056    4074       2    4041    4056    4077       2    4038    4020
    4041       2    4038    4053    4074       2    4029    4050    4062       2
    4026    4008    4029       2    4026    4044    4062       2    4020    4038
    4053       2    4020    4041    4056       2    4017    4038    4020       2
    4017    4038    4053       2    4014    4002    4017       2    4014    4029
    4050       2    4008    4026    4044       2    4008    4029    4014       2
    4008    4029    4050       2    4005    4020    4038       2    4005    4020
    4041       2    4002    3996    4005       2    4002    4014    4029       2
    4002    4017    4038       2    3999    3996    4002       2    3999    3996
    4005       2    3999    4008    4026       2    3999    4008    4029       2
    3996    3999    4008       2    3996    4002    4014       2    3996    4002
    4017       2    3996    4005    4020       2    4191    4200    4194       2
    4185    4194    4200       2    4182    4164    4185       2    4182    4191
    4200       2    4164    4182    4191       2    4164    4185    4194       2
    4161    4182    4164       2    4161    4182    4191       2    4152    4170
    4158       2    4149    4164    4182       2    4149    4164    4185       2
    4146    4128    4149       2    4146    4161    4182       2    4137    4158
    4170       2    4134    4116    4137       2    4134    4152    4170       2
    4128    4146    4161       2    4128    4149    4164       2    4125    4146
    4128       2    4125    4146    4161       2    4122    4110    4125       2
    4122    4137    4158       2    4116    4134    4152       2    4116    4137
    4122       2    4116    4137    4158       2    4113    4128    4146       2
    4113    4128    4149       2    4110    4104    4113       2    4110    4122
    4137       2    4110    4125    4146       2    4107    4104    4110       2
    4107    4104    4113       2    4107    4116    4134       2    4107    4116
    4137       2    4104    4107    4116       2    4104    4110    4122       2
    4104    4110    4125       2    4104    4113    4128       2    4299    4308
    4302       2    4293    4302    4308       2    4290    4272    4293       2
    4290    4299    4308       2    4272    4290    4299       2    4272    4293
    4302       2    4269    4290    4272       2    4269    4290    4299       2
    4260    4278    4266       2    4257    4272    4290       2    4257    4272
    4293       2    4254    4236    4257       2    4254    4269    4290       2
    4245    4266    4278       2    4242    4224    4245       2    4242    4260
    4278       2    4236    4254    4269       2    4236    4257    4272       2
    4233    4254    4236       2    4233    4254    4269       2    4230    4218
    4233       2    4230    4245    4266       2    4224    4242    4260       2
    4224    4245    4230       2    4224    4245    4266       2    4221    4236
    4254       2    4221    4236    4257       2    4218    4212    4221       2
    4218    4230    4245       2    4218    4233    4254       2    4215    4212
    4218       2    4215    4212    4221       2    4215    4224    4242       2
    4215    4224    4245       2    4212    4215    4224       2    4212    4218
    4230       2    4212    4218    4233       2    4212    4221    4236       2
    4407    4416    4410       2    4401    4410    4416       2    4398    4380
    4401       2    4398    4407    4416       2    4380    4398    4407       2
    4380    4401    4410       2    4377    4398    4380       2    4377    4398
    4407       2    4368    4386    4374       2    4365    4380    4398       2
    4365    4380    4401       2    4362    4344    4365       2    4362    4377
    4398       2    4353    4374    4386       2    4350    4332    4353       2
    4350    4368    4386       2    4344    4362    4377       2    4344    4365
    4380       2    4341    4362    4344       2    4341    4362    4377       2
    4338    4326    4341       2    4338    4353    4374       2    4332    4350
    4368       2    4332    4353    4338       2    4332    4353    4374       2
    4329    4344    4362       2    4329    4344    4365       2    4326    4320
    4329       2    4326    4338    4353       2    4326    4341    4362       2
    4323    4320    4326       2    4323    4320    4329       2    4323    4332
    4350       2    4323    4332    4353       2    4320    4323    4332       2
    4320    4326    4338       2    4320    4326    4341       2    4320    4329
    4344       2    4515    4524    4518       2    4509    4518    4524       2
    4506    4488    4509       2    4506    4515    4524       2    4488    4506
    4515       2    4488    4509    4518       2    4485    4506    4488       2
    4485    4506    4515       2    4476    4494    4482       2    4473    4488
    4506       2    4473    4488    4509       2    4470    4452    4473       2
    4470    4485    4506       2    4461    4482    4494       2    4458    4440
    4461       2    4458    4476    4494       2    4452    4470    4485       2
    4452    4473    4488       2    4449    4470    4452       2    4449    4470
    4485       2    4446    4434    4449       2    4446    4461    4482       2
    4440    4458    4476       2    4440    4461    4446       2    4440    4461
    4482       2    4437    4452    4470       2    4437    4452    4473       2
    4434    4428    4437       2    4434    4446    4461       2    4434    4449
    4470       2    4431    4428    4434       2    4431    4428    4437       2
    4431    4440    4458       2    4431    4440    4461       2    4428    4431
    4440       2    4428    4434    4446       2    4428    4434    4449       2
    4428    4437    4452       2    4623    4632    4626       2    4617    4626
    4632       2    4614    4596    4617       2    4614    4623    4632       2
    4596    4614    4623       2    4596    4617    4626       2    4593    4614
    4596       2    4593    4614    4623       2    4584    4602    4590       2
    4581    4596    4614       2    4581    4596    4617       2    4578    4560
    4581       2    4578    4593    4614       2    4569    4590    4602       2
    4566    4548    4569       2    4566    4584    4602       2    4560    4578
    4593       2    4560    4581    4596       2    4557    4578    4560       2
    4557    4578    4593       2    4554    4542    4557       2    4554    4569
    4590       2    4548    4566    4584       2    4548    4569    4554       2
    4548    4569    4590       2    4545    4560    4578       2    4545    4560
    4581       2    4542    4536    4545       2    4542    4554    4569       2
    4542    4557    4578       2    4539    4536    4542       2    4539    4536
    4545       2    4539    4548    4566       2    4539    4548    4569       2
    4536    4539    4548       2    4536    4542    4554       2    4536    4542
    4557       2    4536    4545    4560       2    4731    4740    4734       2
    4725    4734    4740       2    4722    4704    4725       2    4722    4731
    4740       2    4704    4722    4731       2    4704    4725    4734       2
    4701    4722    4704       2    4701    4722    4731       2    4692    4710
    4698       2    4689    4704    4722       2    4689    4704    4725       2
    4686    4668    4689       2    4686    4701    4722       2    4677    4698
    4710       2    4674    4656    4677       2    4674    4692    4710       2
    4668    4686    4701       2    4668    4689    4704       2    4665    4686
    4668       2    4665    4686    4701       2    4662    4650    4665       2
    4662    4677    4698       2    4656    4674    4692       2    4656    4677
    4662       2    4656    4677    4698       2    4653    4668    4686       2
    4653    4668    4689       2    4650    4644    4653       2    4650    4662
    4677       2    4650    4665    4686       2    4647    4644    4650       2
    4647    4644    4653       2    4647    4656    4674       2    4647    4656
    4677       2    4644    4647    4656       2    4644    4650    4662       2
    4644    4650    4665       2    4644    4653    4668       2    4839    4848
    4842       2    4833    4842    4848       2    4830    4812    4833       2
    4830    4839    4848       2    4812    4830    4839       2    4812    4833
    4842       2    4809    4830    4812       2    4809    4830    4839       2
    4800    4818    4806       2    4797    4812    4830       2    4797    4812
    4833       2    4794    4776    4797       2    4794    4809    4830       2
    4785    4806    4818       2    4782    4764    4785       2    4782    4800
    4818       2    4776    4794    4809       2    4776    4797    4812       2
    4773    4794    4776       2    4773    4794    4809       2    4770    4758
    4773       2    4770    4785    4806       2    4764    4782    4800       2
    4764    4785    4770       2    4764    4785    4806       2    4761    4776
    4794       2    4761    4776    4797       2    4758    4752    4761       2
    4758    4770    4785       2    4758    4773    4794       2    4755    4752
    4758       2    4755    4752    4761       2    4755    4764    4782       2
    4755    4764    4785       2    4752    4755    4764       2    4752    4758
    4770       2    4752    4758    4773       2    4752    4761    4776       2
    4947    4956    4950       2    4941    4950    4956       2    4938    4920
    4941       2    4938    4947    4956       2    4920    4938    4947       2
    4920    4941    4950       2    4917    4938    4920       2    4917    4938
    4947       2    4908    4926    4914       2    4905    4920    4938       2
    4905    4920    4941       2    4902    4884    4905       2    4902    4917
    4938       2    4893    4914    4926       2    4890    4872    4893       2
    4890    4908    4926       2    4884    4902    4917       2    4884    4905
    4920       2    4881    4902    4884       2    4881    4902    4917       2
    4878    4866    4881       2    4878    4893    4914       2    4872    4890
    4908       2    4872    4893    4878       2    4872    4893    4914       2
    4869    4884    4902       2    4869    4884    4905       2    4866    4860
    4869       2    4866    4878    4893       2    4866    4881    4902       2
    4863    4860    4866       2    4863    4860    4869       2    4863    4872
    4890       2    4863    4872    4893       2    4860    4863    4872       2
    4860    4866    4878       2    4860    4866    4881       2    4860    4869
    4884       2    5055    5064    5058       2    5049    5058    5064       2
    5046    5028    5049       2    5046    5055    5064       2    5028    5046
    5055       2    5028    5049    5058       2    5025    5046    5028       2
    5025    5046    5055       2    5016    5034    5022       2    5013    5028
    5046       2    5013    5028    5049       2    5010    4992    5013       2
    5010    5025    5046       2    5001    5022    5034       2    4998    4980
    5001       2    4998    5016    5034       2    4992    5010    5025       2
    4992    5013    5028       2    4989    5010    4992       2    4989    5010
    5025       2    4986    4974    4989       2    4986    5001    5022       2
    4980    4998    5016       2    4980    5001    4986       2    4980    5001
    5022       2    4977    4992    5010       2    4977    4992    5013       2
    4974    4968    4977       2    4974    4986    5001       2    4974    4989
    5010       2    4971    4968    4974       2    4971    4968    4977       2
    4971    4980    4998       2    4971    4980    5001       2    4968    4971
    4980       2    4968    4974    4986       2    4968    4974    4989       2
    4968    4977    4992       2    5163    5172    5166       2    5157    5166
    5172       2    5154    5136    5157       2    5154    5163    5172       2
    5136    5154    5163       2    5136    5157    5166       2    5133    5154
    5136       2    5133    5154    5163       2    5124    5142    5130       2
    5121    5136    5154       2    5121    5136    5157       2    5118    5100
    5121       2    5118    5133    5154       2    5109    5130    5142       2
    5106    5088    5109       2    5106    5124    5142       2    5100    5118
    5133       2    5100    5121    5136       2    5097    5118    5100       2
    5097    5118    5133       2    5094    5082    5097       2    5094    5109
    5130       2    5088    5106    5124       2    5088    5109    5094       2
    5088    5109    5130       2    5085    5100    5118       2    5085    5100
    5121       2    5082    5076    5085       2    5082    5094    5109       2
    5082    5097    5118       2    5079    5076    5082       2    5079    5076
    5085       2    5079    5088    5106       2    5079    5088    5109       2
    5076    5079    5088       2    5076    5082    5094       2    5076    5082
    5097       2    5076    5085    5100       2    5271    5280    5274       2
    5265    5274    5280       2    5262    5244    5265       2    5262    5271
    5280       2    5244    5262    5271       2    5244    5265    5274       2
    5241    5262    5244       2    5241    5262    5271       2    5232    5250
    5238       2    5229    5244    5262       2    5229    5244    5265       2
    5226    5208    5229       2    5226    5241    5262       2    5217    5238
    5250       2    5214    5196    5217       2    5214    5232    5250       2
    5208    5226    5241       2    5208    5229    5244       2    5205    5226
    5208       2    5205    5226    5241       2    5202    5190    5205       2
    5202    5217    5238       2    5196    5214    5232       2    5196    5217
    5202       2    5196    5217    5238       2    5193    5208    5226       2
    5193    5208    5229       2    5190    5184    5193       2    5190    5202
    5217       2    5190    5205    5226       2    5187    5184    5190       2
    5187    5184    5193       2    5187    5196    5214       2    5187    5196
    5217       2    5184    5187    5196       2    5184    5190    5202       2
    5184    5190    5205       2    5184    5193    5208       2    5379    5388
    5382       2    5373    5382    5388       2    5370    5352    5373       2
    5370    5379    5388       2    5352    5370    5379       2    5352    5373
    5382       2    5349    5370    5352       2    5349    5370    5379       2
    5340    5358    5346       2    5337    5352    5370       2    5337    5352
    5373       2    5334    5316    5337       2    5334    5349    5370       2
    5325    5346    5358       2    5322    5304    5325       2    5322    5340
    5358       2    5316    5334    5349       2    5316    5337    5352       2
    5313    5334    5316       2    5313    5334    5349       2    5310    5298
    5313       2    5310    5325    5346       2    5304    5322    5340       2
    5304    5325    5310       2    5304    5325    5346       2    5301    5316
    5334       2    5301    5316    5337       2    5298    5292    5301       2
    5298    5310    5325       2    5298    5313    5334       2    5295    5292
    5298       2    5295    5292    5301       2    5295    5304    5322       2
    5295    5304    5325       2    5292    5295    5304       2    5292    5298
    5310       2    5292    5298    5313       2    5292    5301    5316       2
    5487    5496    5490       2    5481    5490    5496       2    5478    5460
    5481       2    5478    5487    5496       2    5460    5478    5487       2
    5460    5481    5490       2    5457    5478    5460       2    5457    5478
    5487       2    5448    5466    5454       2    5445    5460    5478       2
    5445    5460    5481       2    5442    5424    5445       2    5442    5457
    5478       2    5433    5454    5466       2    5430    5412    5433       2
    5430    5448    5466       2    5424    5442    5457       2    5424    5445
    5460       2    5421    5442    5424       2    5421    5442    5457       2
    5418    5406    5421       2    5418    5433    5454       2    5412    5430
    5448       2    5412    5433    5418       2    5412    5433    5454       2
    5409    5424    5442       2    5409    5424    5445       2    5406    5400
    5409       2    5406    5418    5433       2    5406    5421    5442       2
    5403    5400    5406       2    5403    5400    5409       2    5403    5412
    5430       2    5403    5412    5433       2    5400    5403    5412       2
    5400    5406    5418       2    5400    5406    5421       2    5400    5409
    5424       2    5595    5604    5598       2    5589    5598    5604       2
    5586    5568    5589       2    5586    5595    5604       2    5568    5586
    5595       2    5568    5589    5598       2    5565    5586    5568       2
    5565    5586    5595       2    5556    5574    5562       2    5553    5568
    5586       2    5553    5568    5589       2    5550    5532    5553       2
    5550    5565    5586       2    5541    5562    5574       2    5538    5520
    5541       2    5538    5556    5574       2    5532    5550    5565       2
    5532    5553    5568       2    5529    5550    5532       2    5529    5550
    5565       2    5526    5514    5529       2    5526    5541    5562       2
    5520    5538    5556       2    5520    5541    5526       2    5520    5541
    5562       2    5517    5532    5550       2    5517    5532    5553       2
    5514    5508    5517       2    5514    5526    5541       2    5514    5529
    5550       2    5511    5508    5514       2    5511    5508    5517       2
    5511    5520    5538       2    5511    5520    5541       2    5508    5511
    5520       2    5508    5514    5526       2    5508    5514    5529       2
    5508    5517    5532       2    5703    5712    5706       2    5697    5706
    5712       2    5694    5676    5697       2    5694    5703    5712       2
    5676    5694    5703       2    5676    5697    5706       2    5673    5694
    5676       2    5673    5694    5703       2    5664    5682    5670       2
    5661    5676    5694       2    5661    5676    5697       2    5658    5640
    5661       2    5658    5673    5694       2    5649    5670    5682       2
    5646    5628    5649       2    5646    5664    5682       2    5640    5658
    5673       2    5640    5661    5676       2    5637    5658    5640       2
    5637    5658    5673       2    5634    5622    5637       2    5634    5649
    5670       2    5628    5646    5664       2    5628    5649    5634       2
    5628    5649    5670       2    5625    5640    5658       2    5625    5640
    5661       2    5622    5616    5625       2    5622    5634    5649       2
    5622    5637    5658       2    5619    5616    5622       2    5619    5616
    5625       2    5619    5628    5646       2    5619    5628    5649       2
    5616    5619    5628       2    5616    5622    5634       2    5616    5622
    5637       2    5616    5625    5640       2    5811    5820    5814       2
    5805    5814    5820       2    5802    5784    5805       2    5802    5811
    5820       2    5784    5802    5811       2    5784    5805    5814       2
    5781    5802    5784       2    5781    5802    5811       2    5772    5790
    5778       2    5769    5784    5802       2    5769    5784    5805       2
    5766    5748    5769       2    5766    5781    5802       2    5757    5778
    5790       2    5754    5736    5757       2    5754    5772    5790       2
    5748    5766    5781       2    5748    5769    5784       2    5745    5766
    5748       2    5745    5766    5781       2    5742    5730    5745       2
    5742    5757    5778       2    5736    5754    5772       2    5736    5757
    5742       2    5736    5757    5778       2    5733    5748    5766       2
    5733    5748    5769       2    5730    5724    5733       2    5730    5742
    5757       2    5730    5745    5766       2    5727    5724    5730       2
    5727    5724    5733       2    5727    5736    5754       2    5727    5736
    5757       2    5724    5727    5736       2    5724    5730    5742       2
    5724    5730    5745       2    5724    5733    5748       2    5919    5928
    5922       2    5913    5922    5928       2    5910    5892    5913       2
    5910    5919    5928       2    5892    5910    5919       2    5892    5913
    5922       2    5889    5910    5892       2    5889    5910    5919       2
    5880    5898    5886       2    5877    5892    5910       2    5877    5892
    5913       2    5874    5856    5877       2    5874    5889    5910       2
    5865    5886    5898       2    5862    5844    5865       2    5862    5880
    5898       2    5856    5874    5889       2    5856    5877    5892       2
    5853    5874    5856       2    5853    5874    5889       2    5850    5838
    5853       2    5850    5865    5886       2    5844    5862    5880       2
    5844    5865    5850       2    5844    5865    5886       2    5841    5856
    5874       2    5841    5856    5877       2    5838    5832    5841       2
    5838    5850    5865       2    5838    5853    5874       2    5835    5832
    5838       2    5835    5832    5841       2    5835    5844    5862       2
    5835    5844    5865       2    5832    5835    5844       2    5832    5838
    5850       2    5832    5838    5853       2    5832    5841    5856       2
    6027    6036    6030       2    6021    6030    6036       2    6018    6000
    6021       2    6018    6027    6036       2    6000    6018    6027       2
    6000    6021    6030       2    5997    6018    6000       2    5997    6018
    6027       2    5988    6006    5994       2    5985    6000    6018       2
    5985    6000    6021       2    5982    5964    5985       2    5982    5997
    6018       2    5973    5994    6006       2    5970    5952    5973       2
    5970    5988    6006       2    5964    5982    5997       2    5964    5985
    6000       2    5961    5982    5964       2    5961    5982    5997       2
    5958    5946    5961       2    5958    5973    5994       2    5952    5970
    5988       2    5952    5973    5958       2    5952    5973    5994       2
    5949    5964    5982       2    5949    5964    5985       2    5946    5940
    5949       2    5946    5958    5973       2    5946    5961    5982       2
    5943    5940    5946       2    5943    5940    5949       2    5943    5952
    5970       2    5943    5952    5973       2    5940    5943    5952       2
    5940    5946    5958       2    5940    5946    5961       2    5940    5949
    5964       2    6135    6144    6138       2    6129    6138    6144       2
    6126    6108    6129       2    6126    6135    6144       2    6108    6126
    6135       2    6108    6129    6138       2    6105    6126    6108       2
    6105    6126    6135       2    6096    6114    6102       2    6093    6108
    6126       2    6093    6108    6129       2    6090    6072    6093       2
    6090    6105    6126       2    6081    6102    6114       2    6078    6060
    6081       2    6078    6096    6114       2    6072    6090    6105       2
    6072    6093    6108       2    6069    6090    6072       2    6069    6090
    6105       2    6066    6054    6069       2    6066    6081    6102       2
    6060    6078    6096       2    6060    6081    6066       2    6060    6081
    6102       2    6057    6072    6090       2    6057    6072    6093       2
    6054    6048    6057       2    6054    6066    6081       2    6054    6069
    6090       2    6051    6048    6054       2    6051    6048    6057       2
    6051    6060    6078       2    6051    6060    6081       2    6048    6051
    6060       2    6048    6054    6066       2    6048    6054    6069       2
    6048    6057    6072       2    6243    6252    6246       2    6237    6246
    6252       2    6234    6216    6237       2    6234    6243    6252       2
    6216    6234    6243       2    6216    6237    6246       2    6213    6234
    6216       2    6213    6234    6243       2    6204    6222    6210       2
    6201    6216    6234       2    6201    6216    6237       2    6198    6180
    6201       2    6198    6213    6234       2    6189    6210    6222       2
    6186    6168    6189       2    6186    6204    6222       2    6180    6198
    6213       2    6180    6201    6216       2    6177    6198    6180       2
    6177    6198    6213       2    6174    6162    6177       2    6174    6189
    6210       2    6168    6186    6204       2    6168    6189    6174       2
    6168    6189    6210       2    6165    6180    6198       2    6165    6180
    6201       2    6162    6156    6165       2    6162    6174    6189       2
    6162    6177    6198       2    6159    6156    6162       2    6159    6156
    6165       2    6159    6168    6186       2    6159    6168    6189       2
    6156    6159    6168       2    6156    6162    6174       2    6156    6162
    6177       2    6156    6165    6180       2    6351    6360    6354       2
    6345    6354    6360       2    6342    6324    6345       2    6342    6351
    6360       2    6324    6342    6351       2    6324    6345    6354       2
    6321    6342    6324       2    6321    6342    6351       2    6312    6330
    6318       2    6309    6324    6342       2    6309    6324    6345       2
    6306    6288    6309       2    6306    6321    6342       2    6297    6318
    6330       2    6294    6276    6297       2    6294    6312    6330       2
    6288    6306    6321       2    6288    6309    6324       2    6285    6306
    6288       2    6285    6306    6321       2    6282    6270    6285       2
    6282    6297    6318       2    6276    6294    6312       2    6276    6297
    6282       2    6276    6297    6318       2    6273    6288    6306       2
    6273    6288    6309       2    6270    6264    6273       2    6270    6282
    6297       2    6270    6285    6306       2    6267    6264    6270       2
    6267    6264    6273       2    6267    6276    6294       2    6267    6276
    6297       2    6264    6267    6276       2    6264    6270    6282       2
    6264    6270    6285       2    6264    6273    6288       2    6459    6468
    6462       2    6453    6462    6468       2    6450    6432    6453       2
    6450    6459    6468       2    6432    6450    6459       2    6432    6453
    6462       2    6429    6450    6432       2    6429    6450    6459       2
    6420    6438    6426       2    6417    6432    6450       2    6417    6432
    6453       2    6414    6396    6417       2    6414    6429    6450       2
    6405    6426    6438       2    6402    6384    6405       2    6402    6420
    6438       2    6396    6414    6429       2    6396    6417    6432       2
    6393    6414    6396       2    6393    6414    6429       2    6390    6378
    6393       2    6390    6405    6426       2    6384    6402    6420       2
    6384    6405    6390       2    6384    6405    6426       2    6381    6396
    6414       2    6381    6396    6417       2    6378    6372    6381       2
    6378    6390    6405       2    6378    6393    6414       2    6375    6372
    6378       2    6375    6372    6381       2    6375    6384    6402       2
    6375    6384    6405       2    6372    6375    6384       2    6372    6378
    6390       2    6372    6378    6393       2    6372    6381    6396       2
    6567    6576    6570       2    6561    6570    6576       2    6558    6540
    6561       2    6558    6567    6576       2    6540    6558    6567       2
    6540    6561    6570       2    6537    6558    6540       2    6537    6558
    6567       2    6528    6546    6534       2    6525    6540    6558       2
    6525    6540    6561       2    6522    6504    6525       2    6522    6537
    6558       2    6513    6534    6546       2    6510    6492    6513       2
    6510    6528    6546       2    6504    6522    6537       2    6504    6525
    6540       2    6501    6522    6504       2    6501    6522    6537       2
    6498    6486    6501       2    6498    6513    6534       2    6492    6510
    6528       2    6492    6513    6498       2    6492    6513    6534       2
    6489    6504    6522       2    6489    6504    6525       2    6486    6480
    6489       2    6486    6498    6513       2    6486    6501    6522       2
    6483    6480    6486       2    6483    6480    6489       2    6483    6492
    6510       2    6483    6492    6513       2    6480    6483    6492       2
    6480    6486    6498       2    6480    6486    6501       2    6480    6489
    6504       2    6675    6684    6678       2    6669    6678    6684       2
    6666    6648    6669       2    6666    6675    6684       2    6648    6666
    6675       2    6648    6669    6678       2    6645    6666    6648       2
    6645    6666    6675       2    6636    6654    6642       2    6633    6648
    6666       2    6633    6648    6669       2    6630    6612    6633       2
    6630    6645    6666       2    6621    6642    6654       2    6618    6600
    6621       2    6618    6636    6654       2    6612    6630    6645       2
    6612    6633    6648       2    6609    6630    6612       2    6609    6630
    6645       2    6606    6594    6609       2    6606    6621    6642       2
    6600    6618    6636       2    6600    6621    6606       2    6600    6621
    6642       2    6597    6612    6630       2    6597    6612    6633       2
    6594    6588    6597       2    6594    6606    6621       2    6594    6609
    6630       2    6591    6588    6594       2    6591    6588    6597       2
    6591    6600    6618       2    6591    6600    6621       2    6588    6591
    6600       2    6588    6594    6606       2    6588    6594    6609       2
    6588    6597    6612       2    6783    6792    6786       2    6777    6786
    6792       2    6774    6756    6777       2    6774    6783    6792       2
    6756    6774    6783       2    6756    6777    6786       2    6753    6774
    6756       2    6753    6774    6783       2    6744    6762    6750       2
    6741    6756    6774       2    6741    6756    6777       2    6738    6720
    6741       2    6738    6753    6774       2    6729    6750    6762       2
    6726    6708    6729       2    6726    6744    6762       2    6720    6738
    6753       2    6720    6741    6756       2    6717    6738    6720       2
    6717    6738    6753       2    6714    6702    6717       2    6714    6729
    6750       2    6708    6726    6744       2    6708    6729    6714       2
    6708    6729    6750       2    6705    6720    6738       2    6705    6720
    6741       2    6702    6696    6705       2    6702    6714    6729       2
    6702    6717    6738       2    6699    6696    6702       2    6699    6696
    6705       2    6699    6708    6726       2    6699    6708    6729       2
    6696    6699    6708       2    6696    6702    6714       2    6696    6702
    6717       2    6696    6705    6720       2    6891    6900    6894       2
    6885    6894    6900       2    6882    6864    6885       2    6882    6891
    6900       2    6864    6882    6891       2    6864    6885    6894       2
    6861    6882    6864       2    6861    6882    6891       2    6852    6870
    6858       2    6849    6864    6882       2    6849    6864    6885       2
    6846    6828    6849       2    6846    6861    6882       2    6837    6858
    6870       2    6834    6816    6837       2    6834    6852    6870       2
    6828    6846    6861       2    6828    6849    6864       2    6825    6846
    6828       2    6825    6846    6861       2    6822    6810    6825       2
    6822    6837    6858       2    6816    6834    6852       2    6816    6837
    6822       2    6816    6837    6858       2    6813    6828    6846       2
    6813    6828    6849       2    6810    6804    6813       2    6810    6822
    6837       2    6810    6825    6846       2    6807    6804    6810       2
    6807    6804    6813       2    6807    6816    6834       2    6807    6816
    6837       2    6804    6807    6816       2    6804    6810    6822       2
    6804    6810    6825       2    6804    6813    6828       2    6999    7008
    7002       2    6993    7002    7008       2    6990    6972    6993       2
    6990    6999    7008       2    6972    6990    6999       2    6972    6993
    7002       2    6969    6990    6972       2    6969    6990    6999       2
    6960    6978    6966       2    6957    6972    6990       2    6957    6972
    6993       2    6954    6936    6957       2    6954    6969    6990       2
    6945    6966    6978       2    6942    6924    6945       2    6942    6960
    6978       2    6936    6954    6969       2    6936    6957    6972       2
    6933    6954    6936       2    6933    6954    6969       2    6930    6918
    6933       2    6930    6945    6966       2    6924    6942    6960       2
    6924    6945    6930       2    6924    6945    6966       2    6921    6936
    6954       2    6921    6936    6957       2    6918    6912    6921       2
    6918    6930    6945       2    6918    6933    6954       2    6915    6912
    6918       2    6915    6912    6921       2    6915    6924    6942       2
    6915    6924    6945       2    6912    6915    6924       2    6912    6918
    6930       2    6912    6918    6933       2    6912    6921    6936       2
    7107    7116    7110       2    7101    7110    7116       2    7098    7080
    7101       2    7098    7107    7116       2    7080    7098    7107       2
    7080    7101    7110       2    7077    7098    7080       2    7077    7098
    7107       2    7068    7086    7074       2    7065    7080    7098       2
    7065    7080    7101       2    7062    7044    7065       2    7062    7077
    7098       2    7053    7074    7086       2    7050    7032    7053       2
    7050    7068    7086       2    7044    7062    7077       2    7044    7065
    7080       2    7041    7062    7044       2    7041    7062    7077       2
    7038    7026    7041       2    7038    7053    7074       2    7032    7050
    7068       2    7032    7053    7038       2    7032    7053    7074       2
    7029    7044    7062       2    7029    7044    7065       2    7026    7020
    7029       2    7026    7038    7053       2    7026    7041    7062       2
    7023    7020    7026       2    7023    7020    7029       2    7023    7032
    7050       2    7023    7032    7053       2    7020    7023    7032       2
    7020    7026    7038       2    7020    7026    7041       2    7020    7029
    7044       2    7215    7224    7218       2    7209    7218    7224       2
    7206    7188    7209       2    7206    7215    7224       2    7188    7206
    7215       2    7188    7209    7218       2    7185    7206    7188       2
    7185    7206    7215       2    7176    7194    7182       2    7173    7188
    7206       2    7173    7188    7209       2    7170    7152    7173       2
    7170    7185    7206       2    7161    7182    7194       2    7158    7140
    7161       2    7158    7176    7194       2    7152    7170    7185       2
    7152    7173    7188       2    7149    7170    7152       2    7149    7170
    7185       2    7146    7134    7149       2    7146    7161    7182       2
    7140    7158    7176       2    7140    7161    7146       2    7140    7161
    7182       2    7137    7152    7170       2    7137    7152    7173       2
    7134    7128    7137       2    7134    7146    7161       2    7134    7149
    7170       2    7131    7128    7134       2    7131    7128    7137       2
    7131    7140    7158       2    7131    7140    7161       2    7128    7131
    7140       2    7128    7134    7146       2    7128    7134    7149       2
    7128    7137    7152       2    7323    7332    7326       2    7317    7326
    7332       2    7314    7296    7317       2    7314    7323    7332       2
    7296    7314    7323       2    7296    7317    7326       2    7293    7314
    7296       2    7293    7314    7323       2    7284    7302    7290       2
    7281    7296    7314       2    7281    7296    7317       2    7278    7260
    7281       2    7278    7293    7314       2    7269    7290    7302       2
    7266    7248    7269       2    7266    7284    7302       2    7260    7278
    7293       2    7260    7281    7296       2    7257    7278    7260       2
    7257    7278    7293       2    7254    7242    7257       2    7254    7269
    7290       2    7248    7266    7284       2    7248    7269    7254       2
    7248    7269    7290       2    7245    7260    7278       2    7245    7260
    7281       2    7242    7236    7245       2    7242    7254    7269       2
    7242    7257    7278       2    7239    7236    7242       2    7239    7236
    7245       2    7239    7248    7266       2    7239    7248    7269       2
    7236    7239    7248       2    7236    7242    7254       2    7236    7242
    7257       2    7236    7245    7260       2    7431    7440    7434       2
    7425    7434    7440       2    7422    7404    7425       2    7422    7431
    7440       2    7404    7422    7431       2    7404    7425    7434       2
    7401    7422    7404       2    7401    7422    7431       2    7392    7410
    7398       2    7389    7404    7422       2    7389    7404    7425       2
    7386    7368    7389       2    7386    7401    7422       2    7377    7398
    7410       2    7374    7356    7377       2    7374    7392    7410       2
    7368    7386    7401       2    7368    7389    7404       2    7365    7386
    7368       2    7365    7386    7401       2    7362    7350    7365       2
    7362    7377    7398       2    7356    7374    7392       2    7356    7377
    7362       2    7356    7377    7398       2    7353    7368    7386       2
    7353    7368    7389       2    7350    7344    7353       2    7350    7362
    7377       2    7350    7365    7386       2    7347    7344    7350       2
    7347    7344    7353       2    7347    7356    7374       2    7347    7356
    7377       2    7344    7347    7356       2    7344    7350    7362       2
    7344    7350    7365       2    7344    7353    7368       2    7539    7548
    7542       2    7533    7542    7548       2    7530    7512    7533       2
    7530    7539    7548       2    7512    7530    7539       2    7512    7533
    7542       2    7509    7530    7512       2    7509    7530    7539       2
    7500    7518    7506       2    7497    7512    7530       2    7497    7512
    7533       2    7494    7476    7497       2    7494    7509    7530       2
    7485    7506    7518       2    7482    7464    7485       2    7482    7500
    7518       2    7476    7494    7509       2    7476    7497    7512       2
    7473    7494    7476       2    7473    7494    7509       2    7470    7458
    7473       2    7470    7485    7506       2    7464    7482    7500       2
    7464    7485    7470       2    7464    7485    7506       2    7461    7476
    7494       2    7461    7476    7497       2    7458    7452    7461       2
    7458    7470    7485       2    7458    7473    7494       2    7455    7452
    7458       2    7455    7452    7461       2    7455    7464    7482       2
    7455    7464    7485       2    7452    7455    7464       2    7452    7458
    7470       2    7452    7458    7473       2    7452    7461    7476       2
    7647    7656    7650       2    7641    7650    7656       2    7638    7620
    7641       2    7638    7647    7656       2    7620    7638    7647       2
    7620    7641    7650       2    7617    7638    7620       2    7617    7638
    7647       2    7608    7626    7614       2    7605    7620    7638       2
    7605    7620    7641       2    7602    7584    7605       2    7602    7617
    7638       2    7593    7614    7626       2    7590    7572    7593       2
    7590    7608    7626       2    7584    7602    7617       2    7584    7605
    7620       2    7581    7602    7584       2    7581    7602    7617       2
    7578    7566    7581       2    7578    7593    7614       2    7572    7590
    7608       2    7572    7593    7578       2    7572    7593    7614       2
    7569    7584    7602       2    7569    7584    7605       2    7566    7560
    7569       2    7566    7578    7593       2    7566    7581    7602       2
    7563    7560    7566       2    7563    7560    7569       2    7563    7572
    7590       2    7563    7572    7593       2    7560    7563    7572       2
    7560    7566    7578       2    7560    7566    7581       2    7560    7569
    7584       2    7755    7764    7758       2    7749    7758    7764       2
    7746    7728    7749       2    7746    7755    7764       2    7728    7746
    7755       2    7728    7749    7758       2    7725    7746    7728       2
    7725    7746    7755       2    7716    7734    7722       2    7713    7728
    7746       2    7713    7728    7749       2    7710    7692    7713       2
    7710    7725    7746       2    7701    7722    7734       2    7698    7680
    7701       2    7698    7716    7734       2    7692    7710    7725       2
    7692    7713    7728       2    7689    7710    7692       2    7689    7710
    7725       2    7686    7674    7689       2    7686    7701    7722       2
    7680    7698    7716       2    7680    7701    7686       2    7680    7701
    7722       2    7677    7692    7710       2    7677    7692    7713       2
    7674    7668    7677       2    7674    7686    7701       2    7674    7689
    7710       2    7671    7668    7674       2    7671    7668    7677       2
    7671    7680    7698       2    7671    7680    7701       2    7668    7671
    7680       2    7668    7674    7686       2    7668    7674    7689       2
    7668    7677    7692       2    7863    7872    7866       2    7857    7866
    7872       2    7854    7836    7857       2    7854    7863    7872       2
    7836    7854    7863       2    7836    7857    7866       2    7833    7854
    7836       2    7833    7854    7863       2    7824    7842    7830       2
    7821    7836    7854       2    7821    7836    7857       2    7818    7800
    7821       2    7818    7833    7854       2    7809    7830    7842       2
    7806    7788    7809       2    7806    7824    7842       2    7800    7818
    7833       2    7800    7821    7836       2    7797    7818    7800       2
    7797    7818    7833       2    7794    7782    7797       2    7794    7809
    7830       2    7788    7806    7824       2    7788    7809    7794       2
    7788    7809    7830       2    7785    7800    7818       2    7785    7800
    7821       2    7782    7776    7785       2    7782    7794    7809       2
    7782    7797    7818       2    7779    7776    7782       2    7779    7776
    7785       2    7779    7788    7806       2    7779    7788    7809       2
    7776    7779    7788       2    7776    7782    7794       2    7776    7782
    7797       2    7776    7785    7800       2    7971    7980    7974       2
    7965    7974    7980       2    7962    7944    7965       2    7962    7971
    7980       2    7944    7962    7971       2    7944    7965    7974       2
    7941    7962    7944       2    7941    7962    7971       2    7932    7950
    7938       2    7929    7944    7962       2    7929    7944    7965       2
    7926    7908    7929       2    7926    7941    7962       2    7917    7938
    7950       2    7914    7896    7917       2    7914    7932    7950       2
    7908    7926    7941       2    7908    7929    7944       2    7905    7926
    7908       2    7905    7926    7941       2    7902    7890    7905       2
    7902    7917    7938       2    7896    7914    7932       2    7896    7917
    7902       2    7896    7917    7938       2    7893    7908    7926       2
    7893    7908    7929       2    7890    7884    7893       2    7890    7902
    7917       2    7890    7905    7926       2    7887    7884    7890       2
    7887    7884    7893       2    7887    7896    7914       2    7887    7896
    7917       2    7884    7887    7896       2    7884    7890    7902       2
    7884    7890    7905       2    7884    7893    7908       2    8079    8088
    8082       2    8073    8082    8088       2    8070    8052    8073       2
    8070    8079    8088       2    8052    8070    8079       2    8052    8073
    8082       2    8049    8070    8052       2    8049    8070    8079       2
    8040    8058    8046       2    8037    8052    8070       2    8037    8052
    8073       2    8034    8016    8037       2    8034    8049    8070       2
    8025    8046    8058       2    8022    8004    8025       2    8022    8040
    8058       2    8016    8034    8049       2    8016    8037    8052       2
    8013    8034    8016       2    8013    8034    8049       2    8010    7998
    8013       2    8010    8025    8046       2    8004    8022    8040       2
    8004    8025    8010       2    8004    8025    8046       2    8001    8016
    8034       2    8001    8016    8037       2    7998    7992    8001       2
    7998    8010    8025       2    7998    8013    8034       2    7995    7992
    7998       2    7995    7992    8001       2    7995    8004    8022       2
    7995    8004    8025       2    7992    7995    8004       2    7992    7998
    8010       2    7992    7998    8013       2    7992    8001    8016       2
    8187    8196    8190       2    8181    8190    8196       2    8178    8160
    8181       2    8178    8187    8196       2    8160    8178    8187       2
    8160    8181    8190       2    8157    8178    8160       2    8157    8178
    8187       2    8148    8166    8154       2    8145    8160    8178       2
    8145    8160    8181       2    8142    8124    8145       2    8142    8157
    8178       2    8133    8154    8166       2    8130    8112    8133       2
    8130    8148    8166       2    8124    8142    8157       2    8124    8145
    8160       2    8121    8142    8124       2    8121    8142    8157       2
    8118    8106    8121       2    8118    8133    8154       2    8112    8130
    8148       2    8112    8133    8118       2    8112    8133    8154       2
    8109    8124    8142       2    8109    8124    8145       2    8106    8100
    8109       2    8106    8118    8133       2    8106    8121    8142       2
    8103    8100    8106       2    8103    8100    8109       2    8103    8112
    8130       2    8103    8112    8133       2    8100    8103    8112       2
    8100    8106    8118       2    8100    8106    8121       2    8100    8109
    8124       2    8295    8304    8298       2    8289    8298    8304       2
    8286    8268    8289       2    8286    8295    8304       2    8268    8286
    8295       2    8268    8289    8298       2    8265    8286    8268       2
    8265    8286    8295       2    8256    8274    8262       2    8253    8268
    8286       2    8253    8268    8289       2    8250    8232    8253       2
    8250    8265    8286       2    8241    8262    8274       2    8238    8220
    8241       2    8238    8256    8274       2    8232    8250    8265       2
    8232    8253    8268       2    8229    8250    8232       2    8229    8250
    8265       2    8226    8214    8229       2    8226    8241    8262       2
    8220    8238    8256       2    8220    8241    8226       2    8220    8241
    8262       2    8217    8232    8250       2    8217    8232    8253       2
    8214    8208    8217       2    8214    8226    8241       2    8214    8229
    8250       2    8211    8208    8214       2    8211    8208    8217       2
    8211    8220    8238       2    8211    8220    8241       2    8208    8211
    8220       2    8208    8214    8226       2    8208    8214    8229       2
    8208    8217    8232       2    8403    8412    8406       2    8397    8406
    8412       2    8394    8376    8397       2    8394    8403    8412       2
    8376    8394    8403       2    8376    8397    8406       2    8373    8394
    8376       2    8373    8394    8403       2    8364    8382    8370       2
    8361    8376    8394       2    8361    8376    8397       2    8358    8340
    8361       2    8358    8373    8394       2    8349    8370    8382       2
    8346    8328    8349       2    8346    8364    8382       2    8340    8358
    8373       2    8340    8361    8376       2    8337    8358    8340       2
    8337    8358    8373       2    8334    8322    8337       2    8334    8349
    8370       2    8328    8346    8364       2    8328    8349    8334       2
    8328    8349    8370       2    8325    8340    8358       2    8325    8340
    8361       2    8322    8316    8325       2    8322    8334    8349       2
    8322    8337    8358       2    8319    8316    8322       2    8319    8316
    8325       2    8319    8328    8346       2    8319    8328    8349       2
    8316    8319    8328       2    8316    8322    8334       2    8316    8322
    8337       2    8316    8325    8340       2    8511    8520    8514       2
    8505    8514    8520       2    8502    8484    8505       2    8502    8511
    8520       2    8484    8502    8511       2    8484    8505    8514       2
    8481    8502    8484       2    8481    8502    8511       2    8472    8490
    8478       2    8469    8484    8502       2    8469    8484    8505       2
    8466    8448    8469       2    8466    8481    8502       2    8457    8478
    8490       2    8454    8436    8457       2    8454    8472    8490       2
    8448    8466    8481       2    8448    8469    8484       2    8445    8466
    8448       2    8445    8466    8481       2    8442    8430    8445       2
    8442    8457    8478       2    8436    8454    8472       2    8436    8457
    8442       2    8436    8457    8478       2    8433    8448    8466       2
    8433    8448    8469       2    8430    8424    8433       2    8430    8442
    8457       2    8430    8445    8466       2    8427    8424    8430       2
    8427    8424    8433       2    8427    8436    8454       2    8427    8436
    8457       2    8424    8427    8436       2    8424    8430    8442       2
    8424    8430    8445       2    8424    8433    8448       2    8619    8628
    8622       2    8613    8622    8628       2    8610    8592    8613       2
    8610    8619    8628       2    8592    8610    8619       2    8592    8613
    8622       2    8589    8610    8592       2    8589    8610    8619       2
    8580    8598    8586       2    8577    8592    8610       2    8577    8592
    8613       2    8574    8556    8577       2    8574    8589    8610       2
    8565    8586    8598       2    8562    8544    8565       2    8562    8580
    8598       2    8556    8574    8589       2    8556    8577    8592       2
    8553    8574    8556       2    8553    8574    8589       2    8550    8538
    8553       2    8550    8565    8586       2    8544    8562    8580       2
    8544    8565    8550       2    8544    8565    8586       2    8541    8556
    8574       2    8541    8556    8577       2    8538    8532    8541       2
    8538    8550    8565       2    8538    8553    8574       2    8535    8532
    8538       2    8535    8532    8541       2    8535    8544    8562       2
    8535    8544    8565       2    8532    8535    8544       2    8532    8538
    8550       2    8532    8538    8553       2    8532    8541    8556       2
    8727    8736    8730       2    8721    8730    8736       2    8718    8700
    8721       2    8718    8727    8736       2    8700    8718    8727       2
    8700    8721    8730       2    8697    8718    8700       2    8697    8718
    8727       2    8688    8706    8694       2    8685    8700    8718       2
    8685    8700    8721       2    8682    8664    8685       2    8682    8697
    8718       2    8673    8694    8706       2    8670    8652    8673       2
    8670    8688    8706       2    8664    8682    8697       2    8664    8685
    8700       2    8661    8682    8664       2    8661    8682    8697       2
    8658    8646    8661       2    8658    8673    8694       2    8652    8670
    8688       2    8652    8673    8658       2    8652    8673    8694       2
    8649    8664    8682       2    8649    8664    8685       2    8646    8640
    8649       2    8646    8658    8673       2    8646    8661    8682       2
    8643    8640    8646       2    8643    8640    8649       2    8643    8652
    8670       2    8643    8652    8673       2    8640    8643    8652       2
    8640    8646    8658       2    8640    8646    8661       2    8640    8649
    8664       2    8835    8844    8838       2    8829    8838    8844       2
    8826    8808    8829       2    8826    8835    8844       2    8808    8826
    8835       2    8808    8829    8838       2    8805    8826    8808       2
    8805    8826    8835       2    8796    8814    8802       2    8793    8808
    8826       2    8793    8808    8829       2    8790    8772    8793       2
    8790    8805    8826       2    8781    8802    8814       2    8778    8760
    8781       2    8778    8796    8814       2    8772    8790    8805       2
    8772    8793    8808       2    8769    8790    8772       2    8769    8790
    8805       2    8766    8754    8769       2    8766    8781    8802       2
    8760    8778    8796       2    8760    8781    8766       2    8760    8781
    8802       2    8757    8772    8790       2    8757    8772    8793       2
    8754    8748    8757       2    8754    8766    8781       2    8754    8769
    8790       2    8751    8748    8754       2    8751    8748    8757       2
    8751    8760    8778       2    8751    8760    8781       2    8748    8751
    8760       2    8748    8754    8766       2    8748    8754    8769       2
    8748    8757    8772       2    8943    8952    8946       2    8937    8946
    8952       2    8934    8916    8937       2    8934    8943    8952       2
    8916    8934    8943       2    8916    8937    8946       2    8913    8934
    8916       2    8913    8934    8943       2    8904    8922    8910       2
    8901    8916    8934       2    8901    8916    8937       2    8898    8880
    8901       2    8898    8913    8934       2    8889    8910    8922       2
    8886    8868    8889       2    8886    8904    8922       2    8880    8898
    8913       2    8880    8901    8916       2    8877    8898    8880       2
    8877    8898    8913       2    8874    8862    8877       2    8874    8889
    8910       2    8868    8886    8904       2    8868    8889    8874       2
    8868    8889    8910       2    8865    8880    8898       2    8865    8880
    8901       2    8862    8856    8865       2    8862    8874    8889       2
    8862    8877    8898       2    8859    8856    8862       2    8859    8856
    8865       2    8859    8868    8886       2    8859    8868    8889       2
    8856    8859    8868       2    8856    8862    8874       2    8856    8862
    8877       2    8856    8865    8880       2    9051    9060    9054       2
    9045    9054    9060       2    9042    9024    9045       2    9042    9051
    9060       2    9024    9042    9051       2    9024    9045    9054       2
    9021    9042    9024       2    9021    9042    9051       2    9012    9030
    9018       2    9009    9024    9042       2    9009    9024    9045       2
    9006    8988    9009       2    9006    9021    9042       2    8997    9018
    9030       2    8994    8976    8997       2    8994    9012    9030       2
    8988    9006    9021       2    8988    9009    9024       2    8985    9006
    8988       2    8985    9006    9021       2    8982    8970    8985       2
    8982    8997    9018       2    8976    8994    9012       2    8976    8997
    8982       2    8976    8997    9018       2    8973    8988    9006       2
    8973    8988    9009       2    8970    8964    8973       2    8970    8982
    8997       2    8970    8985    9006       2    8967    8964    8970       2
    8967    8964    8973       2    8967    8976    8994       2    8967    8976
    8997       2    8964    8967    8976       2    8964    8970    8982       2
    8964    8970    8985       2    8964    8973    8988       2    9159    9168
    9162       2    9153    9162    9168       2    9150    9132    9153       2
    9150    9159    9168       2    9132    9150    9159       2    9132    9153
    9162       2    9129    9150    9132       2    9129    9150    9159       2
    9120    9138    9126       2    9117    9132    9150       2    9117    9132
    9153       2    9114    9096    9117       2    9114    9129    9150       2
    9105    9126    9138       2    9102    9084    9105       2    9102    9120
    9138       2    9096    9114    9129       2    9096    9117    9132       2
    9093    9114    9096       2    9093    9114    9129       2    9090    9078
    9093       2    9090    9105    9126       2    9084    9102    9120       2
    9084    9105    9090       2    9084    9105    9126       2    9081    9096
    9114       2    9081    9096    9117       2    9078    9072    9081       2
    9078    9090    9105       2    9078    9093    9114       2    9075    9072
    9078       2    9075    9072    9081       2    9075    9084    9102       2
    9075    9084    9105       2    9072    9075    9084       2    9072    9078
    9090       2    9072    9078    9093       2    9072    9081    9096       2
    9267    9276    9270       2    9261    9270    9276       2    9258    9240
    9261       2    9258    9267    9276       2    9240    9258    9267       2
    9240    9261    9270       2    9237    9258    9240       2    9237    9258
    9267       2    9228    9246    9234       2    9225    9240    9258       2
    9225    9240    9261       2    9222    9204    9225       2    9222    9237
    9258       2    9213    9234    9246       2    9210    9192    9213       2
    9210    9228    9246       2    9204    9222    9237       2    9204    9225
    9240       2    9201    9222    9204       2    9201    9222    9237       2
    9198    9186    9201       2    9198    9213    9234       2    9192    9210
    9228       2    9192    9213    9198       2    9192    9213    9234       2
    9189    9204    9222       2    9189    9204    9225       2    9186    9180
    9189       2    9186    9198    9213       2    9186    9201    9222       2
    9183    9180    9186       2    9183    9180    9189       2    9183    9192
    9210       2    9183    9192    9213       2    9180    9183    9192       2
    9180    9186    9198       2    9180    9186    9201       2    9180    9189
    9204       2    9375    9384    9378       2    9369    9378    9384       2
    9366    9348    9369       2    9366    9375    9384       2    9348    9366
    9375       2    9348    9369    9378       2    9345    9366    9348       2
    9345    9366    9375       2    9336    9354    9342       2    9333    9348
    9366       2    9333    9348    9369       2    9330    9312    9333       2
    9330    9345    9366       2    9321    9342    9354       2    9318    9300
    9321       2    9318    9336    9354       2    9312    9330    9345       2
    9312    9333    9348       2    9309    9330    9312       2    9309    9330
    9345       2    9306    9294    9309       2    9306    9321    9342       2
    9300    9318    9336       2    9300    9321    9306       2    9300    9321
    9342       2    9297    9312    9330       2    9297    9312    9333       2
    9294    9288    9297       2    9294    9306    9321       2    9294    9309
    9330       2    9291    9288    9294       2    9291    9288    9297       2
    9291    9300    9318       2    9291    9300    9321       2    9288    9291
    9300       2    9288    9294    9306       2    9288    9294    9309       2
    9288    9297    9312       2    9483    9492    9486       2    9477    9486
    9492       2    9474    9456    9477       2    9474    9483    9492       2
    9456    9474    9483       2    9456    9477    9486       2    9453    9474
    9456       2    9453    9474    9483       2    9444    9462    9450       2
    9441    9456    9474       2    9441    9456    9477       2    9438    9420
    9441       2    9438    9453    9474       2    9429    9450    9462       2
    9426    9408    9429       2    9426    9444    9462       2    9420    9438
    9453       2    9420    9441    9456       2    9417    9438    9420       2
    9417    9438    9453       2    9414    9402    9417       2    9414    9429
    9450       2    9408    9426    9444       2    9408    9429    9414       2
    9408    9429    9450       2    9405    9420    9438       2    9405    9420
    9441       2    9402    9396    9405       2    9402    9414    9429       2
    9402    9417    9438       2    9399    9396    9402       2    9399    9396
    9405       2    9399    9408    9426       2    9399    9408    9429       2
    9396    9399    9408       2    9396    9402    9414       2    9396    9402
    9417       2    9396    9405    9420       2    9591    9600    9594       2
    9585    9594    9600       2    9582    9564    9585       2    9582    9591
    9600       2    9564    9582    9591       2    9564    9585    9594       2
    9561    9582    9564       2    9561    9582    9591       2    9552    9570
    9558       2    9549    9564    9582       2    9549    9564    9585       2
    9546    9528    9549       2    9546    9561    9582       2    9537    9558
    9570       2    9534    9516    9537       2    9534    9552    9570       2
    9528    9546    9561       2    9528    9549    9564       2    9525    9546
    9528       2    9525    9546    9561       2    9522    9510    9525       2
    9522    9537    9558       2    9516    9534    9552       2    9516    9537
    9522       2    9516    9537    9558       2    9513    9528    9546       2
    9513    9528    9549       2    9510    9504    9513       2    9510    9522
    9537       2    9510    9525    9546       2    9507    9504    9510       2
    9507    9504    9513       2    9507    9516    9534       2    9507    9516
    9537       2    9504    9507    9516       2    9504    9510    9522       2
    9504    9510    9525       2    9504    9513    9528       2    9699    9708
    9702       2    9693    9702    9708       2    9690    9672    9693       2
    9690    9699    9708       2    9672    9690    9699       2    9672    9693
    9702       2    9669    9690    9672       2    9669    9690    9699       2
    9660    9678    9666       2    9657    9672    9690       2    9657    9672
    9693       2    9654    9636    9657       2    9654    9669    9690       2
    9645    9666    9678       2    9642    9624    9645       2    9642    9660
    9678       2    9636    9654    9669       2    9636    9657    9672       2
    9633    9654    9636       2    9633    9654    9669       2    9630    9618
    9633       2    9630    9645    9666       2    9624    9642    9660       2
    9624    9645    9630       2    9624    9645    9666       2    9621    9636
    9654       2    9621    9636    9657       2    9618    9612    9621       2
    9618    9630    9645       2    9618    9633    9654       2    9615    9612
    9618       2    9615    9612    9621       2    9615    9624    9642       2
    9615    9624    9645       2    9612    9615    9624       2    9612    9618
    9630       2    9612    9618    9633       2    9612    9621    9636       2
    9807    9816    9810       2    9801    9810    9816       2    9798    9780
    9801       2    9798    9807    9816       2    9780    9798    9807       2
    9780    9801    9810       2    9777    9798    9780       2    9777    9798
    9807       2    9768    9786    9774       2    9765    9780    9798       2
    9765    9780    9801       2    9762    9744    9765       2    9762    9777
    9798       2    9753    9774    9786       2    9750    9732    9753       2
    9750    9768    9786       2    9744    9762    9777       2    9744    9765
    9780       2    9741    9762    9744       2    9741    9762    9777       2
    9738    9726    9741       2    9738    9753    9774       2    9732    9750
    9768       2    9732    9753    9738       2    9732    9753    9774       2
    9729    9744    9762       2    9729    9744    9765       2    9726    9720
    9729       2    9726    9738    9753       2    9726    9741    9762       2
    9723    9720    9726       2    9723    9720    9729       2    9723    9732
    9750       2    9723    9732    9753       2    9720    9723    9732       2
    9720    9726    9738       2    9720    9726    9741       2    9720    9729
    9744       2    9915    9924    9918       2    9909    9918    9924       2
    9906    9888    9909       2    9906    9915    9924       2    9888    9906
    9915       2    9888    9909    9918       2    9885    9906    9888       2
    9885    9906    9915       2    9876    9894    9882       2    9873    9888
    9906       2    9873    9888    9909       2    9870    9852    9873       2
    9870    9885    9906       2    9861    9882    9894       2    9858    9840
    9861       2    9858    9876    9894       2    9852    9870    9885       2
    9852    9873    9888       2    9849    9870    9852       2    9849    9870
    9885       2    9846    9834    9849       2    9846    9861    9882       2
    9840    9858    9876       2    9840    9861    9846       2    9840    9861
    9882       2    9837    9852    9870       2    9837    9852    9873       2
    9834    9828    9837       2    9834    9846    9861       2    9834    9849
    9870       2    9831    9828    9834       2    9831    9828    9837       2
    9831    9840    9858       2    9831    9840    9861       2    9828    9831
    9840       2    9828    9834    9846       2    9828    9834    9849       2
    9828    9837    9852       2   10023   10032   10026       2   10017   10026
   10032       2   10014    9996   10017       2   10014   10023   10032       2
    9996   10014   10023       2    9996   10017   10026       2    9993   10014
    9996       2    9993   10014   10023       2    9984   10002    9990       2
    9981    9996   10014       2    9981    9996   10017       2    9978    9960
    9981       2    9978    9993   10014       2    9969    9990   10002       2
    9966    9948    9969       2    9966    9984   10002       2    9960    9978
    9993       2    9960    9981    9996       2    9957    9978    9960       2
    9957    9978    9993       2    9954    9942    9957       2    9954    9969
    9990       2    9948    9966    9984       2    9948    9969    9954       2
    9948    9969    9990       2    9945    9960    9978       2    9945    9960
    9981       2    9942    9936    9945       2    9942    9954    9969       2
    9942    9957    9978       2    9939    9936    9942       2    9939    9936
    9945       2    9939    9948    9966       2    9939    9948    9969       2
    9936    9939    9948       2    9936    9942    9954       2    9936    9942
    9957       2    9936    9945    9960       2   10131   10140   10134       2
   10125   10134   10140       2   10122   10104   10125       2   10122   10131
   10140       2   10104   10122   10131       2   10104   10125   10134       2
   10101   10122   10104       2   10101   10122   10131       2   10092   10110
   10098       2   10089   10104   10122       2   10089   10104   10125       2
   10086   10068   10089       2   10086   10101   10122       2   10077   10098
   10110       2   10074   10056   10077       2   10074   10092   10110       2
   10068   10086   10101       2   10068   10089   10104       2   10065   10086
   10068       2   10065   10086   10101       2   10062   10050   10065       2
   10062   10077   10098       2   10056   10074   10092       2   10056   10077
   10062       2   10056   10077   10098       2   10053   10068   10086       2
   10053   10068   10089       2   10050   10044   10053       2   10050   10062
   10077       2   10050   10065   10086       2   10047   10044   10050       2
   10047   10044   10053       2   10047   10056   10074       2   10047   10056
   10077       2   10044   10047   10056       2   10044   10050   10062       2
   10044   10050   10065       2   10044   10053   10068       2   10239   10248
   10242       2   10233   10242   10248       2   10230   10212   10233       2
   10230   10239   10248       2   10212   10230   10239       2   10212   10233
   10242       2   10209   10230   10212       2   10209   10230   10239       2
   10200   10218   10206       2   10197   10212   10230       2   10197   10212
   10233       2   10194   10176   10197       2   10194   10209   10230       2
   10185   10206   10218       2   10182   10164   10185       2   10182   10200
   10218       2   10176   10194   10209       2   10176   10197   10212       2
   10173   10194   10176       2   10173   10194   10209       2   10170   10158
   10173       2   10170   10185   10206       2   10164   10182   10200       2
   10164   10185   10170       2   10164   10185   10206       2   10161   10176
   10194       2   10161   10176   10197       2   10158   10152   10161       2
   10158   10170   10185       2   10158   10173   10194       2   10155   10152
   10158       2   10155   10152   10161       2   10155   10164   10182       2
   10155   10164   10185       2   10152   10155   10164       2   10152   10158
   10170       2   10152   10158   10173       2   10152   10161   10176       2
   10347   10356   10350       2   10341   10350   10356       2   10338   10320
   10341       2   10338   10347   10356       2   10320   10338   10347       2
   10320   10341   10350       2   10317   10338   10320       2   10317   10338
   10347       2   10308   10326   10314       2   10305   10320   10338       2
   10305   10320   10341       2   10302   10284   10305       2   10302   10317
   10338       2   10293   10314   10326       2   10290   10272   10293       2
   10290   10308   10326       2   10284   10302   10317       2   10284   10305
   10320       2   10281   10302   10284       2   10281   10302   10317       2
   10278   10266   10281       2   10278   10293   10314       2   10272   10290
   10308       2   10272   10293   10278       2   10272   10293   10314       2
   10269   10284   10302       2   10269   10284   10305       2   10266   10260
   10269       2   10266   10278   10293       2   10266   10281   10302       2
   10263   10260   10266       2   10263   10260   10269       2   10263   10272
   10290       2   10263   10272   10293       2   10260   10263   10272       2
   10260   10266   10278       2   10260   10266   10281       2   10260   10269
   10284       2   10455   10464   10458       2   10449   10458   10464       2
   10446   10428   10449       2   10446   10455   10464       2   10428   10446
   10455       2   10428   10449   10458       2   10425   10446   10428       2
   10425   10446   10455       2   10416   10434   10422       2   10413   10428
   10446       2   10413   10428   10449       2   10410   10392   10413       2
   10410   10425   10446       2   10401   10422   10434       2   10398   10380
   10401       2   10398   10416   10434       2   10392   10410   10425       2
   10392   10413   10428       2   10389   10410   10392       2   10389   10410
   10425       2   10386   10374   10389       2   10386   10401   10422       2
   10380   10398   10416       2   10380   10401   10386       2   10380   10401
   10422       2   10377   10392   10410       2   10377   10392   10413       2
   10374   10368   10377       2   10374   10386   10401       2   10374   10389
   10410       2   10371   10368   10374       2   10371   10368   10377       2
   10371   10380   10398       2   10371   10380   10401       2   10368   10371
   10380       2   10368   10374   10386       2   10368   10374   10389       2
   10368   10377   10392       2   10563   10572   10566       2   10557   10566
   10572       2   10554   10536   10557       2   10554   10563   10572       2
   10536   10554   10563       2   10536   10557   10566       2   10533   10554
   10536       2   10533   10554   10563       2   10524   10542   10530       2
   10521   10536   10554       2   10521   10536   10557       2   10518   10500
   10521       2   10518   10533   10554       2   10509   10530   10542       2
   10506   10488   10509       2   10506   10524   10542       2   10500   10518
   10533       2   10500   10521   10536       2   10497   10518   10500       2
   10497   10518   10533       2   10494   10482   10497       2   10494   10509
   10530       2   10488   10506   10524       2   10488   10509   10494       2
   10488   10509   10530       2   10485   10500   10518       2   10485   10500
   10521       2   10482   10476   10485       2   10482   10494   10509       2
   10482   10497   10518       2   10479   10476   10482       2   10479   10476
   10485       2   10479   10488   10506       2   10479   10488   10509       2
   10476   10479   10488       2   10476   10482   10494       2   10476   10482
   10497       2   10476   10485   10500       2   10671   10680   10674       2
   10665   10674   10680       2   10662   10644   10665       2   10662   10671
   10680       2   10644   10662   10671       2   10644   10665   10674       2
   10641   10662   10644       2   10641   10662   10671       2   10632   10650
   10638       2   10629   10644   10662       2   10629   10644   10665       2
   10626   10608   10629       2   10626   10641   10662       2   10617   10638
   10650       2   10614   10596   10617       2   10614   10632   10650       2
   10608   10626   10641       2   10608   10629   10644       2   10605   10626
   10608       2   10605   10626   10641       2   10602   10590   10605       2
   10602   10617   10638       2   10596   10614   10632       2   10596   10617
   10602       2   10596   10617   10638       2   10593   10608   10626       2
   10593   10608   10629       2   10590   10584   10593       2   10590   10602
   10617       2   10590   10605   10626       2   10587   10584   10590       2
   10587   10584   10593       2   10587   10596   10614       2   10587   10596
   10617       2   10584   10587   10596       2   10584   10590   10602       2
   10584   10590   10605       2   10584   10593   10608       2   10779   10788
   10782       2   10773   10782   10788       2   10770   10752   10773       2
   10770   10779   10788       2   10752   10770   10779       2   10752   10773
   10782       2   10749   10770   10752       2   10749   10770   10779       2
   10740   10758   10746       2   10737   10752   10770       2   10737   10752
   10773       2   10734   10716   10737       2   10734   10749   10770       2
   10725   10746   10758       2   10722   10704   10725       2   10722   10740
   10758       2   10716   10734   10749       2   10716   10737   10752       2
   10713   10734   10716       2   10713   10734   10749       2   10710   10698
   10713       2   10710   10725   10746       2   10704   10722   10740       2
   10704   10725   10710       2   10704   10725   10746       2   10701   10716
   10734       2   10701   10716   10737       2   10698   10692   10701       2
   10698   10710   10725       2   10698   10713   10734       2   10695   10692
   10698       2   10695   10692   10701       2   10695   10704   10722       2
   10695   10704   10725       2   10692   10695   10704       2   10692   10698
   10710       2   10692   10698   10713       2   10692   10701   10716       2
   10887   10896   10890       2   10881   10890   10896       2   10878   10860
   10881       2   10878   10887   10896       2   10860   10878   10887       2
   10860   10881   10890       2   10857   10878   10860       2   10857   10878
   10887       2   10848   10866   10854       2   10845   10860   10878       2
   10845   10860   10881       2   10842   10824   10845       2   10842   10857
   10878       2   10833   10854   10866       2   10830   10812   10833       2
   10830   10848   10866       2   10824   10842   10857       2   10824   10845
   10860       2   10821   10842   10824       2   10821   10842   10857       2
   10818   10806   10821       2   10818   10833   10854       2   10812   10830
   10848       2   10812   10833   10818       2   10812   10833   10854       2
   10809   10824   10842       2   10809   10824   10845       2   10806   10800
   10809       2   10806   10818   10833       2   10806   10821   10842       2
   10803   10800   10806       2   10803   10800   10809       2   10803   10812
   10830       2   10803   10812   10833       2   10800   10803   10812       2
   10800   10806   10818       2   10800   10806   10821       2   10800   10809
   10824       2   10995   11004   10998       2   10989   10998   11004       2
   10986   10968   10989       2   10986   10995   11004       2   10968   10986
   10995       2   10968   10989   10998       2   10965   10986   10968       2
   10965   10986   10995       2   10956   10974   10962       2   10953   10968
   10986       2   10953   10968   10989       2   10950   10932   10953       2
   10950   10965   10986       2   10941   10962   10974       2   10938   10920
   10941       2   10938   10956   10974       2   10932   10950   10965       2
   10932   10953   10968       2   10929   10950   10932       2   10929   10950
   10965       2   10926   10914   10929       2   10926   10941   10962       2
   10920   10938   10956       2   10920   10941   10926       2   10920   10941
   10962       2   10917   10932   10950       2   10917   10932   10953       2
   10914   10908   10917       2   10914   10926   10941       2   10914   10929
   10950       2   10911   10908   10914       2   10911   10908   10917       2
   10911   10920   10938       2   10911   10920   10941       2   10908   10911
   10920       2   10908   10914   10926       2   10908   10914   10929       2
   10908   10917   10932       2   11103   11112   11106       2   11097   11106
   11112       2   11094   11076   11097       2   11094   11103   11112       2
   11076   11094   11103       2   11076   11097   11106       2   11073   11094
   11076       2   11073   11094   11103       2   11064   11082   11070       2
   11061   11076   11094       2   11061   11076   11097       2   11058   11040
   11061       2   11058   11073   11094       2   11049   11070   11082       2
   11046   11028   11049       2   11046   11064   11082       2   11040   11058
   11073       2   11040   11061   11076       2   11037   11058   11040       2
   11037   11058   11073       2   11034   11022   11037       2   11034   11049
   11070       2   11028   11046   11064       2   11028   11049   11034       2
   11028   11049   11070       2   11025   11040   11058       2   11025   11040
   11061       2   11022   11016   11025       2   11022   11034   11049       2
   11022   11037   11058       2   11019   11016   11022       2   11019   11016
   11025       2   11019   11028   11046       2   11019   11028   11049       2
   11016   11019   11028       2   11016   11022   11034       2   11016   11022
   11037       2   11016   11025   11040       2   11211   11220   11214       2
   11205   11214   11220       2   11202   11184   11205       2   11202   11211
   11220       2   11184   11202   11211       2   11184   11205   11214       2
   11181   11202   11184       2   11181   11202   11211       2   11172   11190
   11178       2   11169   11184   11202       2   11169   11184   11205       2
   11166   11148   11169       2   11166   11181   11202       2   11157   11178
   11190       2   11154   11136   11157       2   11154   11172   11190       2
   11148   11166   11181       2   11148   11169   11184       2   11145   11166
   11148       2   11145   11166   11181       2   11142   11130   11145       2
   11142   11157   11178       2   11136   11154   11172       2   11136   11157
   11142       2   11136   11157   11178       2   11133   11148   11166       2
   11133   11148   11169       2   11130   11124   11133       2   11130   11142
   11157       2   11130   11145   11166       2   11127   11124   11130       2
   11127   11124   11133       2   11127   11136   11154       2   11127   11136
   11157       2   11124   11127   11136       2   11124   11130   11142       2
   11124   11130   11145       2   11124   11133   11148       2   11319   11328
   11322       2   11313   11322   11328       2   11310   11292   11313       2
   11310   11319   11328       2   11292   11310   11319       2   11292   11313
   11322       2   11289   11310   11292       2   11289   11310   11319       2
   11280   11298   11286       2   11277   11292   11310       2   11277   11292
   11313       2   11274   11256   11277       2   11274   11289   11310       2
   11265   11286   11298       2   11262   11244   11265       2   11262   11280
   11298       2   11256   11274   11289       2   11256   11277   11292       2
   11253   11274   11256       2   11253   11274   11289       2   11250   11238
   11253       2   11250   11265   11286       2   11244   11262   11280       2
   11244   11265   11250       2   11244   11265   11286       2   11241   11256
   11274       2   11241   11256   11277       2   11238   11232   11241       2
   11238   11250   11265       2   11238   11253   11274       2   11235   11232
   11238       2   11235   11232   11241       2   11235   11244   11262       2
   11235   11244   11265       2   11232   11235   11244       2   11232   11238
   11250       2   11232   11238   11253       2   11232   11241   11256       2
   11427   11436   11430       2   11421   11430   11436       2   11418   11400
   11421       2   11418   11427   11436       2   11400   11418   11427       2
   11400   11421   11430       2   11397   11418   11400       2   11397   11418
   11427       2   11388   11406   11394       2   11385   11400   11418       2
   11385   11400   11421       2   11382   11364   11385       2   11382   11397
   11418       2   11373   11394   11406       2   11370   11352   11373       2
   11370   11388   11406       2   11364   11382   11397       2   11364   11385
   11400       2   11361   11382   11364       2   11361   11382   11397       2
   11358   11346   11361       2   11358   11373   11394       2   11352   11370
   11388       2   11352   11373   11358       2   11352   11373   11394       2
   11349   11364   11382       2   11349   11364   11385       2   11346   11340
   11349       2   11346   11358   11373       2   11346   11361   11382       2
   11343   11340   11346       2   11343   11340   11349       2   11343   11352
   11370       2   11343   11352   11373       2   11340   11343   11352       2
   11340   11346   11358       2   11340   11346   11361       2   11340   11349
   11364       2   11535   11544   11538       2   11529   11538   11544       2
   11526   11508   11529       2   11526   11535   11544       2   11508   11526
   11535       2   11508   11529   11538       2   11505   11526   11508       2
   11505   11526   11535       2   11496   11514   11502       2   11493   11508
   11526       2   11493   11508   11529       2   11490   11472   11493       2
   11490   11505   11526       2   11481   11502   11514       2   11478   11460
   11481       2   11478   11496   11514       2   11472   11490   11505       2
   11472   11493   11508       2   11469   11490   11472       2   11469   11490
   11505       2   11466   11454   11469       2   11466   11481   11502       2
   11460   11478   11496       2   11460   11481   11466       2   11460   11481
   11502       2   11457   11472   11490       2   11457   11472   11493       2
   11454   11448   11457       2   11454   11466   11481       2   11454   11469
   11490       2   11451   11448   11454       2   11451   11448   11457       2
   11451   11460   11478       2   11451   11460   11481       2   11448   11451
   11460       2   11448   11454   11466       2   11448   11454   11469       2
   11448   11457   11472       2   11643   11652   11646       2   11637   11646
   11652       2   11634   11616   11637       2   11634   11643   11652       2
   11616   11634   11643       2   11616   11637   11646       2   11613   11634
   11616       2   11613   11634   11643       2   11604   11622   11610       2
   11601   11616   11634       2   11601   11616   11637       2   11598   11580
   11601       2   11598   11613   11634       2   11589   11610   11622       2
   11586   11568   11589       2   11586   11604   11622       2   11580   11598
   11613       2   11580   11601   11616       2   11577   11598   11580       2
   11577   11598   11613       2   11574   11562   11577       2   11574   11589
   11610       2   11568   11586   11604       2   11568   11589   11574       2
   11568   11589   11610       2   11565   11580   11598       2   11565   11580
   11601       2   11562   11556   11565       2   11562   11574   11589       2
   11562   11577   11598       2   11559   11556   11562       2   11559   11556
   11565       2   11559   11568   11586       2   11559   11568   11589       2
   11556   11559   11568       2   11556   11562   11574       2   11556   11562
   11577       2   11556   11565   11580       2   11751   11760   11754       2
   11745   11754   11760       2   11742   11724   11745       2   11742   11751
   11760       2   11724   11742   11751       2   11724   11745   11754       2
   11721   11742   11724       2   11721   11742   11751       2   11712   11730
   11718       2   11709   11724   11742       2   11709   11724   11745       2
   11706   11688   11709       2   11706   11721   11742       2   11697   11718
   11730       2   11694   11676   11697       2   11694   11712   11730       2
   11688   11706   11721       2   11688   11709   11724       2   11685   11706
   11688       2   11685   11706   11721       2   11682   11670   11685       2
   11682   11697   11718       2   11676   11694   11712       2   11676   11697
   11682       2   11676   11697   11718       2   11673   11688   11706       2
   11673   11688   11709       2   11670   11664   11673       2   11670   11682
   11697       2   11670   11685   11706       2   11667   11664   11670       2
   11667   11664   11673       2   11667   11676   11694       2   11667   11676
   11697       2   11664   11667   11676       2   11664   11670   11682       2
   11664   11670   11685       2   11664   11673   11688       2   11859   11868
   11862       2   11853   11862   11868       2   11850   11832   11853       2
   11850   11859   11868       2   11832   11850   11859       2   11832   11853
   11862       2   11829   11850   11832       2   11829   11850   11859       2
   11820   11838   11826       2   11817   11832   11850       2   11817   11832
   11853       2   11814   11796   11817       2   11814   11829   11850       2
   11805   11826   11838       2   11802   11784   11805       2   11802   11820
   11838       2   11796   11814   11829       2   11796   11817   11832       2
   11793   11814   11796       2   11793   11814   11829       2   11790   11778
   11793       2   11790   11805   11826       2   11784   11802   11820       2
   11784   11805   11790       2   11784   11805   11826       2   11781   11796
   11814       2   11781   11796   11817       2   11778   11772   11781       2
   11778   11790   11805       2   11778   11793   11814       2   11775   11772
   11778       2   11775   11772   11781       2   11775   11784   11802       2
   11775   11784   11805       2   11772   11775   11784       2   11772   11778
   11790       2   11772   11778   11793       2   11772   11781   11796       2
   11967   11976   11970       2   11961   11970   11976       2   11958   11940
   11961       2   11958   11967   11976       2   11940   11958   11967       2
   11940   11961   11970       2   11937   11958   11940       2   11937   11958
   11967       2   11928   11946   11934       2   11925   11940   11958       2
   11925   11940   11961       2   11922   11904   11925       2   11922   11937
   11958       2   11913   11934   11946       2   11910   11892   11913       2
   11910   11928   11946       2   11904   11922   11937       2   11904   11925
   11940       2   11901   11922   11904       2   11901   11922   11937       2
   11898   11886   11901       2   11898   11913   11934       2   11892   11910
   11928       2   11892   11913   11898       2   11892   11913   11934       2
   11889   11904   11922       2   11889   11904   11925       2   11886   11880
   11889       2   11886   11898   11913       2   11886   11901   11922       2
   11883   11880   11886       2   11883   11880   11889       2   11883   11892
   11910       2   11883   11892   11913       2   11880   11883   11892       2
   11880   11886   11898       2   11880   11886   11901       2   11880   11889
   11904       2   12075   12084   12078       2   12069   12078   12084       2
   12066   12048   12069       2   12066   12075   12084       2   12048   12066
   12075       2   12048   12069   12078       2   12045   12066   12048       2
   12045   12066   12075       2   12036   12054   12042       2   12033   12048
   12066       2   12033   12048   12069       2   12030   12012   12033       2
   12030   12045   12066       2   12021   12042   12054       2   12018   12000
   12021       2   12018   12036   12054       2   12012   12030   12045       2
   12012   12033   12048       2   12009   12030   12012       2   12009   12030
   12045       2   12006   11994   12009       2   12006   12021   12042       2
   12000   12018   12036       2   12000   12021   12006       2   12000   12021
   12042       2   11997   12012   12030       2   11997   12012   12033       2
   11994   11988   11997       2   11994   12006   12021       2   11994   12009
   12030       2   11991   11988   11994       2   11991   11988   11997       2
   11991   12000   12018       2   11991   12000   12021       2   11988   11991
   12000       2   11988   11994   12006       2   11988   11994   12009       2
   11988   11997   12012       2   12183   12192   12186       2   12177   12186
   12192       2   12174   12156   12177       2   12174   12183   12192       2
   12156   12174   12183       2   12156   12177   12186       2   12153   12174
   12156       2   12153   12174   12183       2   12144   12162   12150       2
   12141   12156   12174       2   12141   12156   12177       2   12138   12120
   12141       2   12138   12153   12174       2   12129   12150   12162       2
   12126   12108   12129       2   12126   12144   12162       2   12120   12138
   12153       2   12120   12141   12156       2   12117   12138   12120       2
   12117   12138   12153       2   12114   12102   12117       2   12114   12129
   12150       2   12108   12126   12144       2   12108   12129   12114       2
   12108   12129   12150       2   12105   12120   12138       2   12105   12120
   12141       2   12102   12096   12105       2   12102   12114   12129       2
   12102   12117   12138       2   12099   12096   12102       2   12099   12096
   12105       2   12099   12108   12126       2   12099   12108   12129       2
   12096   12099   12108       2   12096   12102   12114       2   12096   12102
   12117       2   12096   12105   12120       2   12291   12300   12294       2
   12285   12294   12300       2   12282   12264   12285       2   12282   12291
   12300       2   12264   12282   12291       2   12264   12285   12294       2
   12261   12282   12264       2   12261   12282   12291       2   12252   12270
   12258       2   12249   12264   12282       2   12249   12264   12285       2
   12246   12228   12249       2   12246   12261   12282       2   12237   12258
   12270       2   12234   12216   12237       2   12234   12252   12270       2
   12228   12246   12261       2   12228   12249   12264       2   12225   12246
   12228       2   12225   12246   12261       2   12222   12210   12225       2
   12222   12237   12258       2   12216   12234   12252       2   12216   12237
   12222       2   12216   12237   12258       2   12213   12228   12246       2
   12213   12228   12249       2   12210   12204   12213       2   12210   12222
   12237       2   12210   12225   12246       2   12207   12204   12210       2
   12207   12204   12213       2   12207   12216   12234       2   12207   12216
   12237       2   12204   12207   12216       2   12204   12210   12222       2
   12204   12210   12225       2   12204   12213   12228       2   12399   12408
   12402       2   12393   12402   12408       2   12390   12372   12393       2
   12390   12399   12408       2   12372   12390   12399       2   12372   12393
   12402       2   12369   12390   12372       2   12369   12390   12399       2
   12360   12378   12366       2   12357   12372   12390       2   12357   12372
   12393       2   12354   12336   12357       2   12354   12369   12390       2
   12345   12366   12378       2   12342   12324   12345       2   12342   12360
   12378       2   12336   12354   12369       2   12336   12357   12372       2
   12333   12354   12336       2   12333   12354   12369       2   12330   12318
   12333       2   12330   12345   12366       2   12324   12342   12360       2
   12324   12345   12330       2   12324   12345   12366       2   12321   12336
   12354       2   12321   12336   12357       2   12318   12312   12321       2
   12318   12330   12345       2   12318   12333   12354       2   12315   12312
   12318       2   12315   12312   12321       2   12315   12324   12342       2
   12315   12324   12345       2   12312   12315   12324       2   12312   12318
   12330       2   12312   12318   12333       2   12312   12321   12336       2
   12507   12516   12510       2   12501   12510   12516       2   12498   12480
   12501       2   12498   12507   12516       2   12480   12498   12507       2
   12480   12501   12510       2   12477   12498   12480       2   12477   12498
   12507       2   12468   12486   12474       2   12465   12480   12498       2
   12465   12480   12501       2   12462   12444   12465       2   12462   12477
   12498       2   12453   12474   12486       2   12450   12432   12453       2
   12450   12468   12486       2   12444   12462   12477       2   12444   12465
   12480       2   12441   12462   12444       2   12441   12462   12477       2
   12438   12426   12441       2   12438   12453   12474       2   12432   12450
   12468       2   12432   12453   12438       2   12432   12453   12474       2
   12429   12444   12462       2   12429   12444   12465       2   12426   12420
   12429       2   12426   12438   12453       2   12426   12441   12462       2
   12423   12420   12426       2   12423   12420   12429       2   12423   12432
   12450       2   12423   12432   12453       2   12420   12423   12432       2
   12420   12426   12438       2   12420   12426   12441       2   12420   12429
   12444       2   12615   12624   12618       2   12609   12618   12624       2
   12606   12588   12609       2   12606   12615   12624       2   12588   12606
   12615       2   12588   12609   12618       2   12585   12606   12588       2
   12585   12606   12615       2   12576   12594   12582       2   12573   12588
   12606       2   12573   12588   12609       2   12570   12552   12573       2
   12570   12585   12606       2   12561   12582   12594       2   12558   12540
   12561       2   12558   12576   12594       2   12552   12570   12585       2
   12552   12573   12588       2   12549   12570   12552       2   12549   12570
   12585       2   12546   12534   12549       2   12546   12561   12582       2
   12540   12558   12576       2   12540   12561   12546       2   12540   12561
   12582       2   12537   12552   12570       2   12537   12552   12573       2
   12534   12528   12537       2   12534   12546   12561       2   12534   12549
   12570       2   12531   12528   12534       2   12531   12528   12537       2
   12531   12540   12558       2   12531   12540   12561       2   12528   12531
   12540       2   12528   12534   12546       2   12528   12534   12549       2
   12528   12537   12552       2   12723   12732   12726       2   12717   12726
   12732       2   12714   12696   12717       2   12714   12723   12732       2
   12696   12714   12723       2   12696   12717   12726       2   12693   12714
   12696       2   12693   12714   12723       2   12684   12702   12690       2
   12681   12696   12714       2   12681   12696   12717       2   12678   12660
   12681       2   12678   12693   12714       2   12669   12690   12702       2
   12666   12648   12669       2   12666   12684   12702       2   12660   12678
   12693       2   12660   12681   12696       2   12657   12678   12660       2
   12657   12678   12693       2   12654   12642   12657       2   12654   12669
   12690       2   12648   12666   12684       2   12648   12669   12654       2
   12648   12669   12690       2   12645   12660   12678       2   12645   12660
   12681       2   12642   12636   12645       2   12642   12654   12669       2
   12642   12657   12678       2   12639   12636   12642       2   12639   12636
   12645       2   12639   12648   12666       2   12639   12648   12669       2
   12636   12639   12648       2   12636   12642   12654       2   12636   12642
   12657       2   12636   12645   12660       2   12831   12840   12834       2
   12825   12834   12840       2   12822   12804   12825       2   12822   12831
   12840       2   12804   12822   12831       2   12804   12825   12834       2
   12801   12822   12804       2   12801   12822   12831       2   12792   12810
   12798       2   12789   12804   12822       2   12789   12804   12825       2
   12786   12768   12789       2   12786   12801   12822       2   12777   12798
   12810       2   12774   12756   12777       2   12774   12792   12810       2
   12768   12786   12801       2   12768   12789   12804       2   12765   12786
   12768       2   12765   12786   12801       2   12762   12750   12765       2
   12762   12777   12798       2   12756   12774   12792       2   12756   12777
   12762       2   12756   12777   12798       2   12753   12768   12786       2
   12753   12768   12789       2   12750   12744   12753       2   12750   12762
   12777       2   12750   12765   12786       2   12747   12744   12750       2
   12747   12744   12753       2   12747   12756   12774       2   12747   12756
   12777       2   12744   12747   12756       2   12744   12750   12762       2
   12744   12750   12765       2   12744   12753   12768       2   12939   12948
   12942       2   12933   12942   12948       2   12930   12912   12933       2
   12930   12939   12948       2   12912   12930   12939       2   12912   12933
   12942       2   12909   12930   12912       2   12909   12930   12939       2
   12900   12918   12906       2   12897   12912   12930       2   12897   12912
   12933       2   12894   12876   12897       2   12894   12909   12930       2
   12885   12906   12918       2   12882   12864   12885       2   12882   12900
   12918       2   12876   12894   12909       2   12876   12897   12912       2
   12873   12894   12876       2   12873   12894   12909       2   12870   12858
   12873       2   12870   12885   12906       2   12864   12882   12900       2
   12864   12885   12870       2   12864   12885   12906       2   12861   12876
   12894       2   12861   12876   12897       2   12858   12852   12861       2
   12858   12870   12885       2   12858   12873   12894       2   12855   12852
   12858       2   12855   12852   12861       2   12855   12864   12882       2
   12855   12864   12885       2   12852   12855   12864       2   12852   12858
   12870       2   12852   12858   12873       2   12852   12861   12876       2
   13047   13056   13050       2   13041   13050   13056       2   13038   13020
   13041       2   13038   13047   13056       2   13020   13038   13047       2
   13020   13041   13050       2   13017   13038   13020       2   13017   13038
   13047       2   13008   13026   13014       2   13005   13020   13038       2
   13005   13020   13041       2   13002   12984   13005       2   13002   13017
   13038       2   12993   13014   13026       2   12990   12972   12993       2
   12990   13008   13026       2   12984   13002   13017       2   12984   13005
   13020       2   12981   13002   12984       2   12981   13002   13017       2
   12978   12966   12981       2   12978   12993   13014       2   12972   12990
   13008       2   12972   12993   12978       2   12972   12993   13014       2
   12969   12984   13002       2   12969   12984   13005       2   12966   12960
   12969       2   12966   12978   12993       2   12966   12981   13002       2
   12963   12960   12966       2   12963   12960   12969       2   12963   12972
   12990       2   12963   12972   12993       2   12960   12963   12972       2
   12960   12966   12978       2   12960   12966   12981       2   12960   12969
   12984       2   13155   13164   13158       2   13149   13158   13164       2
   13146   13128   13149       2   13146   13155   13164       2   13128   13146
   13155       2   13128   13149   13158       2   13125   13146   13128       2
   13125   13146   13155       2   13116   13134   13122       2   13113   13128
   13146       2   13113   13128   13149       2   13110   13092   13113       2
   13110   13125   13146       2   13101   13122   13134       2   13098   13080
   13101       2   13098   13116   13134       2   13092   13110   13125       2
   13092   13113   13128       2   13089   13110   13092       2   13089   13110
   13125       2   13086   13074   13089       2   13086   13101   13122       2
   13080   13098   13116       2   13080   13101   13086       2   13080   13101
   13122       2   13077   13092   13110       2   13077   13092   13113       2
   13074   13068   13077       2   13074   13086   13101       2   13074   13089
   13110       2   13071   13068   13074       2   13071   13068   13077       2
   13071   13080   13098       2   13071   13080   13101       2   13068   13071
   13080       2   13068   13074   13086       2   13068   13074   13089       2
   13068   13077   13092       2   13263   13272   13266       2   13257   13266
   13272       2   13254   13236   13257       2   13254   13263   13272       2
   13236   13254   13263       2   13236   13257   13266       2   13233   13254
   13236       2   13233   13254   13263       2   13224   13242   13230       2
   13221   13236   13254       2   13221   13236   13257       2   13218   13200
   13221       2   13218   13233   13254       2   13209   13230   13242       2
   13206   13188   13209       2   13206   13224   13242       2   13200   13218
   13233       2   13200   13221   13236       2   13197   13218   13200       2
   13197   13218   13233       2   13194   13182   13197       2   13194   13209
   13230       2   13188   13206   13224       2   13188   13209   13194       2
   13188   13209   13230       2   13185   13200   13218       2   13185   13200
   13221       2   13182   13176   13185       2   13182   13194   13209       2
   13182   13197   13218       2   13179   13176   13182       2   13179   13176
   13185       2   13179   13188   13206       2   13179   13188   13209       2
   13176   13179   13188       2   13176   13182   13194       2   13176   13182
   13197       2   13176   13185   13200       2   13371   13380   13374       2
   13365   13374   13380       2   13362   13344   13365       2   13362   13371
   13380       2   13344   13362   13371       2   13344   13365   13374       2
   13341   13362   13344       2   13341   13362   13371       2   13332   13350
   13338       2   13329   13344   13362       2   13329   13344   13365       2
   13326   13308   13329       2   13326   13341   13362       2   13317   13338
   13350       2   13314   13296   13317       2   13314   13332   13350       2
   13308   13326   13341       2   13308   13329   13344       2   13305   13326
   13308       2   13305   13326   13341       2   13302   13290   13305       2
   13302   13317   13338       2   13296   13314   13332       2   13296   13317
   13302       2   13296   13317   13338       2   13293   13308   13326       2
   13293   13308   13329       2   13290   13284   13293       2   13290   13302
   13317       2   13290   13305   13326       2   13287   13284   13290       2
   13287   13284   13293       2   13287   13296   13314       2   13287   13296
   13317       2   13284   13287   13296       2   13284   13290   13302       2
   13284   13290   13305       2   13284   13293   13308       2   13479   13488
   13482       2   13473   13482   13488       2   13470   13452   13473       2
   13470   13479   13488       2   13452   13470   13479       2   13452   13473
   13482       2   13449   13470   13452       2   13449   13470   13479       2
   13440   13458   13446       2   13437   13452   13470       2   13437   13452
   13473       2   13434   13416   13437       2   13434   13449   13470       2
   13425   13446   13458       2   13422   13404   13425       2   13422   13440
   13458       2   13416   13434   13449       2   13416   13437   13452       2
   13413   13434   13416       2   13413   13434   13449       2   13410   13398
   13413       2   13410   13425   13446       2   13404   13422   13440       2
   13404   13425   13410       2   13404   13425   13446       2   13401   13416
   13434       2   13401   13416   13437       2   13398   13392   13401       2
   13398   13410   13425       2   13398   13413   13434       2   13395   13392
   13398       2   13395   13392   13401       2   13395   13404   13422       2
   13395   13404   13425       2   13392   13395   13404       2   13392   13398
   13410       2   13392   13398   13413       2   13392   13401   13416       2
   13587   13596   13590       2   13581   13590   13596       2   13578   13560
   13581       2   13578   13587   13596       2   13560   13578   13587       2
   13560   13581   13590       2   13557   13578   13560       2   13557   13578
   13587       2   13548   13566   13554       2   13545   13560   13578       2
   13545   13560   13581       2   13542   13524   13545       2   13542   13557
   13578       2   13533   13554   13566       2   13530   13512   13533       2
   13530   13548   13566       2   13524   13542   13557       2   13524   13545
   13560       2   13521   13542   13524       2   13521   13542   13557       2
   13518   13506   13521       2   13518   13533   13554       2   13512   13530
   13548       2   13512   13533   13518       2   13512   13533   13554       2
   13509   13524   13542       2   13509   13524   13545       2   13506   13500
   13509       2   13506   13518   13533       2   13506   13521   13542       2
   13503   13500   13506       2   13503   13500   13509       2   13503   13512
   13530       2   13503   13512   13533       2   13500   13503   13512       2
   13500   13506   13518       2   13500   13506   13521       2   13500   13509
   13524       2   13695   13704   13698       2   13689   13698   13704       2
   13686   13668   13689       2   13686   13695   13704       2   13668   13686
   13695       2   13668   13689   13698       2   13665   13686   13668       2
   13665   13686   13695       2   13656   13674   13662       2   13653   13668
   13686       2   13653   13668   13689       2   13650   13632   13653       2
   13650   13665   13686       2   13641   13662   13674       2   13638   13620
   13641       2   13638   13656   13674       2   13632   13650   13665       2
   13632   13653   13668       2   13629   13650   13632       2   13629   13650
   13665       2   13626   13614   13629       2   13626   13641   13662       2
   13620   13638   13656       2   13620   13641   13626       2   13620   13641
   13662       2   13617   13632   13650       2   13617   13632   13653       2
   13614   13608   13617       2   13614   13626   13641       2   13614   13629
   13650       2   13611   13608   13614       2   13611   13608   13617       2
   13611   13620   13638       2   13611   13620   13641       2   13608   13611
   13620       2   13608   13614   13626       2   13608   13614   13629       2
   13608   13617   13632       2   13803   13812   13806       2   13797   13806
   13812       2   13794   13776   13797       2   13794   13803   13812       2
   13776   13794   13803       2   13776   13797   13806       2   13773   13794
   13776       2   13773   13794   13803       2   13764   13782   13770       2
   13761   13776   13794       2   13761   13776   13797       2   13758   13740
   13761       2   13758   13773   13794       2   13749   13770   13782       2
   13746   13728   13749       2   13746   13764   13782       2   13740   13758
   13773       2   13740   13761   13776       2   13737   13758   13740       2
   13737   13758   13773       2   13734   13722   13737       2   13734   13749
   13770       2   13728   13746   13764       2   13728   13749   13734       2
   13728   13749   13770       2   13725   13740   13758       2   13725   13740
   13761       2   13722   13716   13725       2   13722   13734   13749       2
   13722   13737   13758       2   13719   13716   13722       2   13719   13716
   13725       2   13719   13728   13746       2   13719   13728   13749       2
   13716   13719   13728       2   13716   13722   13734       2   13716   13722
   13737       2   13716   13725   13740       2   13911   13920   13914       2
   13905   13914   13920       2   13902   13884   13905       2   13902   13911
   13920       2   13884   13902   13911       2   13884   13905   13914       2
   13881   13902   13884       2   13881   13902   13911       2   13872   13890
   13878       2   13869   13884   13902       2   13869   13884   13905       2
   13866   13848   13869       2   13866   13881   13902       2   13857   13878
   13890       2   13854   13836   13857       2   13854   13872   13890       2
   13848   13866   13881       2   13848   13869   13884       2   13845   13866
   13848       2   13845   13866   13881       2   13842   13830   13845       2
   13842   13857   13878       2   13836   13854   13872       2   13836   13857
   13842       2   13836   13857   13878       2   13833   13848   13866       2
   13833   13848   13869       2   13830   13824   13833       2   13830   13842
   13857       2   13830   13845   13866       2   13827   13824   13830       2
   13827   13824   13833       2   13827   13836   13854       2   13827   13836
   13857       2   13824   13827   13836       2   13824   13830   13842       2
   13824   13830   13845       2   13824   13833   13848       2   14019   14028
   14022       2   14013   14022   14028       2   14010   13992   14013       2
   14010   14019   14028       2   13992   14010   14019       2   13992   14013
   14022       2   13989   14010   13992       2   13989   14010   14019       2
   13980   13998   13986       2   13977   13992   14010       2   13977   13992
   14013       2   13974   13956   13977       2   13974   13989   14010       2
   13965   13986   13998       2   13962   13944   13965       2   13962   13980
   13998       2   13956   13974   13989       2   13956   13977   13992       2
   13953   13974   13956       2   13953   13974   13989       2   13950   13938
   13953       2   13950   13965   13986       2   13944   13962   13980       2
   13944   13965   13950       2   13944   13965   13986       2   13941   13956
   13974       2   13941   13956   13977       2   13938   13932   13941       2
   13938   13950   13965       2   13938   13953   13974       2   13935   13932
   13938       2   13935   13932   13941       2   13935   13944   13962       2
   13935   13944   13965       2   13932   13935   13944       2   13932   13938
   13950       2   13932   13938   13953       2   13932   13941   13956       2
   14127   14136   14130       2   14121   14130   14136       2   14118   14100
   14121       2   14118   14127   14136       2   14100   14118   14127       2
   14100   14121   14130       2   14097   14118   14100       2   14097   14118
   14127       2   14088   14106   14094       2   14085   14100   14118       2
   14085   14100   14121       2   14082   14064   14085       2   14082   14097
   14118       2   14073   14094   14106       2   14070   14052   14073       2
   14070   14088   14106       2   14064   14082   14097       2   14064   14085
   14100       2   14061   14082   14064       2   14061   14082   14097       2
   14058   14046   14061       2   14058   14073   14094       2   14052   14070
   14088       2   14052   14073   14058       2   14052   14073   14094       2
   14049   14064   14082       2   14049   14064   14085       2   14046   14040
   14049       2   14046   14058   14073       2   14046   14061   14082       2
   14043   14040   14046       2   14043   14040   14049       2   14043   14052
   14070       2   14043   14052   14073       2   14040   14043   14052       2
   14040   14046   14058       2   14040   14046   14061       2   14040   14049
   14064       2   14235   14244   14238       2   14229   14238   14244       2
   14226   14208   14229       2   14226   14235   14244       2   14208   14226
   14235       2   14208   14229   14238       2   14205   14226   14208       2
   14205   14226   14235       2   14196   14214   14202       2   14193   14208
   14226       2   14193   14208   14229       2   14190   14172   14193       2
   14190   14205   14226       2   14181   14202   14214       2   14178   14160
   14181       2   14178   14196   14214       2   14172   14190   14205       2
   14172   14193   14208       2   14169   14190   14172       2   14169   14190
   14205       2   14166   14154   14169       2   14166   14181   14202       2
   14160   14178   14196       2   14160   14181   14166       2   14160   14181
   14202       2   14157   14172   14190       2   14157   14172   14193       2
   14154   14148   14157       2   14154   14166   14181       2   14154   14169
   14190       2   14151   14148   14154       2   14151   14148   14157       2
   14151   14160   14178       2   14151   14160   14181       2   14148   14151
   14160       2   14148   14154   14166       2   14148   14154   14169       2
   14148   14157   14172       2   14343   14352   14346       2   14337   14346
   14352       2   14334   14316   14337       2   14334   14343   14352       2
   14316   14334   14343       2   14316   14337   14346       2   14313   14334
   14316       2   14313   14334   14343       2   14304   14322   14310       2
   14301   14316   14334       2   14301   14316   14337       2   14298   14280
   14301       2   14298   14313   14334       2   14289   14310   14322       2
   14286   14268   14289       2   14286   14304   14322       2   14280   14298
   14313       2   14280   14301   14316       2   14277   14298   14280       2
   14277   14298   14313       2   14274   14262   14277       2   14274   14289
   14310       2   14268   14286   14304       2   14268   14289   14274       2
   14268   14289   14310       2   14265   14280   14298       2   14265   14280
   14301       2   14262   14256   14265       2   14262   14274   14289       2
   14262   14277   14298       2   14259   14256   14262       2   14259   14256
   14265       2   14259   14268   14286       2   14259   14268   14289       2
   14256   14259   14268       2   14256   14262   14274       2   14256   14262
   14277       2   14256   14265   14280       2   14451   14460   14454       2
   14445   14454   14460       2   14442   14424   14445       2   14442   14451
   14460       2   14424   14442   14451       2   14424   14445   14454       2
   14421   14442   14424       2   14421   14442   14451       2   14412   14430
   14418       2   14409   14424   14442       2   14409   14424   14445       2
   14406   14388   14409       2   14406   14421   14442       2   14397   14418
   14430       2   14394   14376   14397       2   14394   14412   14430       2
   14388   14406   14421       2   14388   14409   14424       2   14385   14406
   14388       2   14385   14406   14421       2   14382   14370   14385       2
   14382   14397   14418       2   14376   14394   14412       2   14376   14397
   14382       2   14376   14397   14418       2   14373   14388   14406       2
   14373   14388   14409       2   14370   14364   14373       2   14370   14382
   14397       2   14370   14385   14406       2   14367   14364   14370       2
   14367   14364   14373       2   14367   14376   14394       2   14367   14376
   14397       2   14364   14367   14376       2   14364   14370   14382       2
   14364   14370   14385       2   14364   14373   14388       2   14559   14568
   14562       2   14553   14562   14568       2   14550   14532   14553       2
   14550   14559   14568       2   14532   14550   14559       2   14532   14553
   14562       2   14529   14550   14532       2   14529   14550   14559       2
   14520   14538   14526       2   14517   14532   14550       2   14517   14532
   14553       2   14514   14496   14517       2   14514   14529   14550       2
   14505   14526   14538       2   14502   14484   14505       2   14502   14520
   14538       2   14496   14514   14529       2   14496   14517   14532       2
   14493   14514   14496       2   14493   14514   14529       2   14490   14478
   14493       2   14490   14505   14526       2   14484   14502   14520       2
   14484   14505   14490       2   14484   14505   14526       2   14481   14496
   14514       2   14481   14496   14517       2   14478   14472   14481       2
   14478   14490   14505       2   14478   14493   14514       2   14475   14472
   14478       2   14475   14472   14481       2   14475   14484   14502       2
   14475   14484   14505       2   14472   14475   14484       2   14472   14478
   14490       2   14472   14478   14493       2   14472   14481   14496       2
   14667   14676   14670       2   14661   14670   14676       2   14658   14640
   14661       2   14658   14667   14676       2   14640   14658   14667       2
   14640   14661   14670       2   14637   14658   14640       2   14637   14658
   14667       2   14628   14646   14634       2   14625   14640   14658       2
   14625   14640   14661       2   14622   14604   14625       2   14622   14637
   14658       2   14613   14634   14646       2   14610   14592   14613       2
   14610   14628   14646       2   14604   14622   14637       2   14604   14625
   14640       2   14601   14622   14604       2   14601   14622   14637       2
   14598   14586   14601       2   14598   14613   14634       2   14592   14610
   14628       2   14592   14613   14598       2   14592   14613   14634       2
   14589   14604   14622       2   14589   14604   14625       2   14586   14580
   14589       2   14586   14598   14613       2   14586   14601   14622       2
   14583   14580   14586       2   14583   14580   14589       2   14583   14592
   14610       2   14583   14592   14613       2   14580   14583   14592       2
   14580   14586   14598       2   14580   14586   14601       2   14580   14589
   14604       2   14775   14784   14778       2   14769   14778   14784       2
   14766   14748   14769       2   14766   14775   14784       2   14748   14766
   14775       2   14748   14769   14778       2   14745   14766   14748       2
   14745   14766   14775       2   14736   14754   14742       2   14733   14748
   14766       2   14733   14748   14769       2   14730   14712   14733       2
   14730   14745   14766       2   14721   14742   14754       2   14718   14700
   14721       2   14718   14736   14754       2   14712   14730   14745       2
   14712   14733   14748       2   14709   14730   14712       2   14709   14730
   14745       2   14706   14694   14709       2   14706   14721   14742       2
   14700   14718   14736       2   14700   14721   14706       2   14700   14721
   14742       2   14697   14712   14730       2   14697   14712   14733       2
   14694   14688   14697       2   14694   14706   14721       2   14694   14709
   14730       2   14691   14688   14694       2   14691   14688   14697       2
   14691   14700   14718       2   14691   14700   14721       2   14688   14691
   14700       2   14688   14694   14706       2   14688   14694   14709       2
   14688   14697   14712       2   14883   14892   14886       2   14877   14886
   14892       2   14874   14856   14877       2   14874   14883   14892       2
   14856   14874   14883       2   14856   14877   14886       2   14853   14874
   14856       2   14853   14874   14883       2   14844   14862   14850       2
   14841   14856   14874       2   14841   14856   14877       2   14838   14820
   14841       2   14838   14853   14874       2   14829   14850   14862       2
   14826   14808   14829       2   14826   14844   14862       2   14820   14838
   14853       2   14820   14841   14856       2   14817   14838   14820       2
   14817   14838   14853       2   14814   14802   14817       2   14814   14829
   14850       2   14808   14826   14844       2   14808   14829   14814       2
   14808   14829   14850       2   14805   14820   14838       2   14805   14820
   14841       2   14802   14796   14805       2   14802   14814   14829       2
   14802   14817   14838       2   14799   14796   14802       2   14799   14796
   14805       2   14799   14808   14826       2   14799   14808   14829       2
   14796   14799   14808       2   14796   14802   14814       2   14796   14802
   14817       2   14796   14805   14820       2   14991   15000   14994       2
   14985   14994   15000       2   14982   14964   14985       2   14982   14991
   15000       2   14964   14982   14991       2   14964   14985   14994       2
   14961   14982   14964       2   14961   14982   14991       2   14952   14970
   14958       2   14949   14964   14982       2   14949   14964   14985       2
   14946   14928   14949       2   14946   14961   14982       2   14937   14958
   14970       2   14934   14916   14937       2   14934   14952   14970       2
   14928   14946   14961       2   14928   14949   14964       2   14925   14946
   14928       2   14925   14946   14961       2   14922   14910   14925       2
   14922   14937   14958       2   14916   14934   14952       2   14916   14937
   14922       2   14916   14937   14958       2   14913   14928   14946       2
   14913   14928   14949       2   14910   14904   14913       2   14910   14922
   14937       2   14910   14925   14946       2   14907   14904   14910       2
   14907   14904   14913       2   14907   14916   14934       2   14907   14916
   14937       2   14904   14907   14916       2   14904   14910   14922       2
   14904   14910   14925       2   14904   14913   14928       2   15099   15108
   15102       2   15093   15102   15108       2   15090   15072   15093       2
   15090   15099   15108       2   15072   15090   15099       2   15072   15093
   15102       2   15069   15090   15072       2   15069   15090   15099       2
   15060   15078   15066       2   15057   15072   15090       2   15057   15072
   15093       2   15054   15036   15057       2   15054   15069   15090       2
   15045   15066   15078       2   15042   15024   15045       2   15042   15060
   15078       2   15036   15054   15069       2   15036   15057   15072       2
   15033   15054   15036       2   15033   15054   15069       2   15030   15018
   15033       2   15030   15045   15066       2   15024   15042   15060       2
   15024   15045   15030       2   15024   15045   15066       2   15021   15036
   15054       2   15021   15036   15057       2   15018   15012   15021       2
   15018   15030   15045       2   15018   15033   15054       2   15015   15012
   15018       2   15015   15012   15021       2   15015   15024   15042       2
   15015   15024   15045       2   15012   15015   15024       2   15012   15018
   15030       2   15012   15018   15033       2   15012   15021   15036       2
   15207   15216   15210       2   15201   15210   15216       2   15198   15180
   15201       2   15198   15207   15216       2   15180   15198   15207       2
   15180   15201   15210       2   15177   15198   15180       2   15177   15198
   15207       2   15168   15186   15174       2   15165   15180   15198       2
   15165   15180   15201       2   15162   15144   15165       2   15162   15177
   15198       2   15153   15174   15186       2   15150   15132   15153       2
   15150   15168   15186       2   15144   15162   15177       2   15144   15165
   15180       2   15141   15162   15144       2   15141   15162   15177       2
   15138   15126   15141       2   15138   15153   15174       2   15132   15150
   15168       2   15132   15153   15138       2   15132   15153   15174       2
   15129   15144   15162       2   15129   15144   15165       2   15126   15120
   15129       2   15126   15138   15153       2   15126   15141   15162       2
   15123   15120   15126       2   15123   15120   15129       2   15123   15132
   15150       2   15123   15132   15153       2   15120   15123   15132       2
   15120   15126   15138       2   15120   15126   15141       2   15120   15129
   15144       2   15315   15324   15318       2   15309   15318   15324       2
   15306   15288   15309       2   15306   15315   15324       2   15288   15306
   15315       2   15288   15309   15318       2   15285   15306   15288       2
   15285   15306   15315       2   15276   15294   15282       2   15273   15288
   15306       2   15273   15288   15309       2   15270   15252   15273       2
   15270   15285   15306       2   15261   15282   15294       2   15258   15240
   15261       2   15258   15276   15294       2   15252   15270   15285       2
   15252   15273   15288       2   15249   15270   15252       2   15249   15270
   15285       2   15246   15234   15249       2   15246   15261   15282       2
   15240   15258   15276       2   15240   15261   15246       2   15240   15261
   15282       2   15237   15252   15270       2   15237   15252   15273       2
   15234   15228   15237       2   15234   15246   15261       2   15234   15249
   15270       2   15231   15228   15234       2   15231   15228   15237       2
   15231   15240   15258       2   15231   15240   15261       2   15228   15231
   15240       2   15228   15234   15246       2   15228   15234   15249       2
   15228   15237   15252       2   15423   15432   15426       2   15417   15426
   15432       2   15414   15396   15417       2   15414   15423   15432       2
   15396   15414   15423       2   15396   15417   15426       2   15393   15414
   15396       2   15393   15414   15423       2   15384   15402   15390       2
   15381   15396   15414       2   15381   15396   15417       2   15378   15360
   15381       2   15378   15393   15414       2   15369   15390   15402       2
   15366   15348   15369       2   15366   15384   15402       2   15360   15378
   15393       2   15360   15381   15396       2   15357   15378   15360       2
   15357   15378   15393       2   15354   15342   15357       2   15354   15369
   15390       2   15348   15366   15384       2   15348   15369   15354       2
   15348   15369   15390       2   15345   15360   15378       2   15345   15360
   15381       2   15342   15336   15345       2   15342   15354   15369       2
   15342   15357   15378       2   15339   15336   15342       2   15339   15336
   15345       2   15339   15348   15366       2   15339   15348   15369       2
   15336   15339   15348       2   15336   15342   15354       2   15336   15342
   15357       2   15336   15345   15360       2   15531   15540   15534       2
   15525   15534   15540       2   15522   15504   15525       2   15522   15531
   15540       2   15504   15522   15531       2   15504   15525   15534       2
   15501   15522   15504       2   15501   15522   15531       2   15492   15510
   15498       2   15489   15504   15522       2   15489   15504   15525       2
   15486   15468   15489       2   15486   15501   15522       2   15477   15498
   15510       2   15474   15456   15477       2   15474   15492   15510       2
   15468   15486   15501       2   15468   15489   15504       2   15465   15486
   15468       2   15465   15486   15501       2   15462   15450   15465       2
   15462   15477   15498       2   15456   15474   15492       2   15456   15477
   15462       2   15456   15477   15498       2   15453   15468   15486       2
   15453   15468   15489       2   15450   15444   15453       2   15450   15462
   15477       2   15450   15465   15486       2   15447   15444   15450       2
   15447   15444   15453       2   15447   15456   15474       2   15447   15456
   15477       2   15444   15447   15456       2   15444   15450   15462       2
   15444   15450   15465       2   15444   15453   15468       2   15639   15648
   15642       2   15633   15642   15648       2   15630   15612   15633       2
   15630   15639   15648       2   15612   15630   15639       2   15612   15633
   15642       2   15609   15630   15612       2   15609   15630   15639       2
   15600   15618   15606       2   15597   15612   15630       2   15597   15612
   15633       2   15594   15576   15597       2   15594   15609   15630       2
   15585   15606   15618       2   15582   15564   15585       2   15582   15600
   15618       2   15576   15594   15609       2   15576   15597   15612       2
   15573   15594   15576       2   15573   15594   15609       2   15570   15558
   15573       2   15570   15585   15606       2   15564   15582   15600       2
   15564   15585   15570       2   15564   15585   15606       2   15561   15576
   15594       2   15561   15576   15597       2   15558   15552   15561       2
   15558   15570   15585       2   15558   15573   15594       2   15555   15552
   15558       2   15555   15552   15561       2   15555   15564   15582       2
   15555   15564   15585       2   15552   15555   15564       2   15552   15558
   15570       2   15552   15558   15573       2   15552   15561   15576       2
   15747   15756   15750       2   15741   15750   15756       2   15738   15720
   15741       2   15738   15747   15756       2   15720   15738   15747       2
   15720   15741   15750       2   15717   15738   15720       2   15717   15738
   15747       2   15708   15726   15714       2   15705   15720   15738       2
   15705   15720   15741       2   15702   15684   15705       2   15702   15717
   15738       2   15693   15714   15726       2   15690   15672   15693       2
   15690   15708   15726       2   15684   15702   15717       2   15684   15705
   15720       2   15681   15702   15684       2   15681   15702   15717       2
   15678   15666   15681       2   15678   15693   15714       2   15672   15690
   15708       2   15672   15693   15678       2   15672   15693   15714       2
   15669   15684   15702       2   15669   15684   15705       2   15666   15660
   15669       2   15666   15678   15693       2   15666   15681   15702       2
   15663   15660   15666       2   15663   15660   15669       2   15663   15672
   15690       2   15663   15672   15693       2   15660   15663   15672       2
   15660   15666   15678       2   15660   15666   15681       2   15660   15669
   15684       2   15855   15864   15858       2   15849   15858   15864       2
   15846   15828   15849       2   15846   15855   15864       2   15828   15846
   15855       2   15828   15849   15858       2   15825   15846   15828       2
   15825   15846   15855       2   15816   15834   15822       2   15813   15828
   15846       2   15813   15828   15849       2   15810   15792   15813       2
   15810   15825   15846       2   15801   15822   15834       2   15798   15780
   15801       2   15798   15816   15834       2   15792   15810   15825       2
   15792   15813   15828       2   15789   15810   15792       2   15789   15810
   15825       2   15786   15774   15789       2   15786   15801   15822       2
   15780   15798   15816       2   15780   15801   15786       2   15780   15801
   15822       2   15777   15792   15810       2   15777   15792   15813       2
   15774   15768   15777       2   15774   15786   15801       2   15774   15789
   15810       2   15771   15768   15774       2   15771   15768   15777       2
   15771   15780   15798       2   15771   15780   15801       2   15768   15771
   15780       2   15768   15774   15786       2   15768   15774   15789       2
   15768   15777   15792       2   15963   15972   15966       2   15957   15966
   15972       2   15954   15936   15957       2   15954   15963   15972       2
   15936   15954   15963       2   15936   15957   15966       2   15933   15954
   15936       2   15933   15954   15963       2   15924   15942   15930       2
   15921   15936   15954       2   15921   15936   15957       2   15918   15900
   15921       2   15918   15933   15954       2   15909   15930   15942       2
   15906   15888   15909       2   15906   15924   15942       2   15900   15918
   15933       2   15900   15921   15936       2   15897   15918   15900       2
   15897   15918   15933       2   15894   15882   15897       2   15894   15909
   15930       2   15888   15906   15924       2   15888   15909   15894       2
   15888   15909   15930       2   15885   15900   15918       2   15885   15900
   15921       2   15882   15876   15885       2   15882   15894   15909       2
   15882   15897   15918       2   15879   15876   15882       2   15879   15876
   15885       2   15879   15888   15906       2   15879   15888   15909       2
   15876   15879   15888       2   15876   15882   15894       2   15876   15882
   15897       2   15876   15885   15900       2   16071   16080   16074       2
   16065   16074   16080       2   16062   16044   16065       2   16062   16071
   16080       2   16044   16062   16071       2   16044   16065   16074       2
   16041   16062   16044       2   16041   16062   16071       2   16032   16050
   16038       2   16029   16044   16062       2   16029   16044   16065       2
   16026   16008   16029       2   16026   16041   16062       2   16017   16038
   16050       2   16014   15996   16017       2   16014   16032   16050       2
   16008   16026   16041       2   16008   16029   16044       2   16005   16026
   16008       2   16005   16026   16041       2   16002   15990   16005       2
   16002   16017   16038       2   15996   16014   16032       2   15996   16017
   16002       2   15996   16017   16038       2   15993   16008   16026       2
   15993   16008   16029       2   15990   15984   15993       2   15990   16002
   16017       2   15990   16005   16026       2   15987   15984   15990       2
   15987   15984   15993       2   15987   15996   16014       2   15987   15996
   16017       2   15984   15987   15996       2   15984   15990   16002       2
   15984   15990   16005       2   15984   15993   16008       2   16179   16188
   16182       2   16173   16182   16188       2   16170   16152   16173       2
   16170   16179   16188       2   16152   16170   16179       2   16152   16173
   16182       2   16149   16170   16152       2   16149   16170   16179       2
   16140   16158   16146       2   16137   16152   16170       2   16137   16152
   16173       2   16134   16116   16137       2   16134   16149   16170       2
   16125   16146   16158       2   16122   16104   16125       2   16122   16140
   16158       2   16116   16134   16149       2   16116   16137   16152       2
   16113   16134   16116       2   16113   16134   16149       2   16110   16098
   16113       2   16110   16125   16146       2   16104   16122   16140       2
   16104   16125   16110       2   16104   16125   16146       2   16101   16116
   16134       2   16101   16116   16137       2   16098   16092   16101       2
   16098   16110   16125       2   16098   16113   16134       2   16095   16092
   16098       2   16095   16092   16101       2   16095   16104   16122       2
   16095   16104   16125       2   16092   16095   16104       2   16092   16098
   16110       2   16092   16098   16113       2   16092   16101   16116       2
   16287   16296   16290       2   16281   16290   16296       2   16278   16260
   16281       2   16278   16287   16296       2   16260   16278   16287       2
   16260   16281   16290       2   16257   16278   16260       2   16257   16278
   16287       2   16248   16266   16254       2   16245   16260   16278       2
   16245   16260   16281       2   16242   16224   16245       2   16242   16257
   16278       2   16233   16254   16266       2   16230   16212   16233       2
   16230   16248   16266       2   16224   16242   16257       2   16224   16245
   16260       2   16221   16242   16224       2   16221   16242   16257       2
   16218   16206   16221       2   16218   16233   16254       2   16212   16230
   16248       2   16212   16233   16218       2   16212   16233   16254       2
   16209   16224   16242       2   16209   16224   16245       2   16206   16200
   16209       2   16206   16218   16233       2   16206   16221   16242       2
   16203   16200   16206       2   16203   16200   16209       2   16203   16212
   16230       2   16203   16212   16233       2   16200   16203   16212       2
   16200   16206   16218       2   16200   16206   16221       2   16200   16209
   16224       2   16395   16404   16398       2   16389   16398   16404       2
   16386   16368   16389       2   16386   16395   16404       2   16368   16386
   16395       2   16368   16389   16398       2   16365   16386   16368       2
   16365   16386   16395       2   16356   16374   16362       2   16353   16368
   16386       2   16353   16368   16389       2   16350   16332   16353       2
   16350   16365   16386       2   16341   16362   16374       2   16338   16320
   16341       2   16338   16356   16374       2   16332   16350   16365       2
   16332   16353   16368       2   16329   16350   16332       2   16329   16350
   16365       2   16326   16314   16329       2   16326   16341   16362       2
   16320   16338   16356       2   16320   16341   16326       2   16320   16341
   16362       2   16317   16332   16350       2   16317   16332   16353       2
   16314   16308   16317       2   16314   16326   16341       2   16314   16329
   16350       2   16311   16308   16314       2   16311   16308   16317       2
   16311   16320   16338       2   16311   16320   16341       2   16308   16311
   16320       2   16308   16314   16326       2   16308   16314   16329       2
   16308   16317   16332       2   16503   16512   16506       2   16497   16506
   16512       2   16494   16476   16497       2   16494   16503   16512       2
   16476   16494   16503       2   16476   16497   16506       2   16473   16494
   16476       2   16473   16494   16503       2   16464   16482   16470       2
   16461   16476   16494       2   16461   16476   16497       2   16458   16440
   16461       2   16458   16473   16494       2   16449   16470   16482       2
   16446   16428   16449       2   16446   16464   16482       2   16440   16458
   16473       2   16440   16461   16476       2   16437   16458   16440       2
   16437   16458   16473       2   16434   16422   16437       2   16434   16449
   16470       2   16428   16446   16464       2   16428   16449   16434       2
   16428   16449   16470       2   16425   16440   16458       2   16425   16440
   16461       2   16422   16416   16425       2   16422   16434   16449       2
   16422   16437   16458       2   16419   16416   16422       2   16419   16416
   16425       2   16419   16428   16446       2   16419   16428   16449       2
   16416   16419   16428       2   16416   16422   16434       2   16416   16422
   16437       2   16416   16425   16440       2   16611   16620   16614       2
   16605   16614   16620       2   16602   16584   16605       2   16602   16611
   16620       2   16584   16602   16611       2   16584   16605   16614       2
   16581   16602   16584       2   16581   16602   16611       2   16572   16590
   16578       2   16569   16584   16602       2   16569   16584   16605       2
   16566   16548   16569       2   16566   16581   16602       2   16557   16578
   16590       2   16554   16536   16557       2   16554   16572   16590       2
   16548   16566   16581       2   16548   16569   16584       2   16545   16566
   16548       2   16545   16566   16581       2   16542   16530   16545       2
   16542   16557   16578       2   16536   16554   16572       2   16536   16557
   16542       2   16536   16557   16578       2   16533   16548   16566       2
   16533   16548   16569       2   16530   16524   16533       2   16530   16542
   16557       2   16530   16545   16566       2   16527   16524   16530       2
   16527   16524   16533       2   16527   16536   16554       2   16527   16536
   16557       2   16524   16527   16536       2   16524   16530   16542       2
   16524   16530   16545       2   16524   16533   16548       2   16719   16728
   16722       2   16713   16722   16728       2   16710   16692   16713       2
   16710   16719   16728       2   16692   16710   16719       2   16692   16713
   16722       2   16689   16710   16692       2   16689   16710   16719       2
   16680   16698   16686       2   16677   16692   16710       2   16677   16692
   16713       2   16674   16656   16677       2   16674   16689   16710       2
   16665   16686   16698       2   16662   16644   16665       2   16662   16680
   16698       2   16656   16674   16689       2   16656   16677   16692       2
   16653   16674   16656       2   16653   16674   16689       2   16650   16638
   16653       2   16650   16665   16686       2   16644   16662   16680       2
   16644   16665   16650       2   16644   16665   16686       2   16641   16656
   16674       2   16641   16656   16677       2   16638   16632   16641       2
   16638   16650   16665       2   16638   16653   16674       2   16635   16632
   16638       2   16635   16632   16641       2   16635   16644   16662       2
   16635   16644   16665       2   16632   16635   16644       2   16632   16638
   16650       2   16632   16638   16653       2   16632   16641   16656       2
   16827   16836   16830       2   16821   16830   16836       2   16818   16800
   16821       2   16818   16827   16836       2   16800   16818   16827       2
   16800   16821   16830       2   16797   16818   16800       2   16797   16818
   16827       2   16788   16806   16794       2   16785   16800   16818       2
   16785   16800   16821       2   16782   16764   16785       2   16782   16797
   16818       2   16773   16794   16806       2   16770   16752   16773       2
   16770   16788   16806       2   16764   16782   16797       2   16764   16785
   16800       2   16761   16782   16764       2   16761   16782   16797       2
   16758   16746   16761       2   16758   16773   16794       2   16752   16770
   16788       2   16752   16773   16758       2   16752   16773   16794       2
   16749   16764   16782       2   16749   16764   16785       2   16746   16740
   16749       2   16746   16758   16773       2   16746   16761   16782       2
   16743   16740   16746       2   16743   16740   16749       2   16743   16752
   16770       2   16743   16752   16773       2   16740   16743   16752       2
   16740   16746   16758       2   16740   16746   16761       2   16740   16749
   16764       2   16935   16944   16938       2   16929   16938   16944       2
   16926   16908   16929       2   16926   16935   16944       2   16908   16926
   16935       2   16908   16929   16938       2   16905   16926   16908       2
   16905   16926   16935       2   16896   16914   16902       2   16893   16908
   16926       2   16893   16908   16929       2   16890   16872   16893       2
   16890   16905   16926       2   16881   16902   16914       2   16878   16860
   16881       2   16878   16896   16914       2   16872   16890   16905       2
   16872   16893   16908       2   16869   16890   16872       2   16869   16890
   16905       2   16866   16854   16869       2   16866   16881   16902       2
   16860   16878   16896       2   16860   16881   16866       2   16860   16881
   16902       2   16857   16872   16890       2   16857   16872   16893       2
   16854   16848   16857       2   16854   16866   16881       2   16854   16869
   16890       2   16851   16848   16854       2   16851   16848   16857       2
   16851   16860   16878       2   16851   16860   16881       2   16848   16851
   16860       2   16848   16854   16866       2   16848   16854   16869       2
   16848   16857   16872       2   17043   17052   17046       2   17037   17046
   17052       2   17034   17016   17037       2   17034   17043   17052       2
   17016   17034   17043       2   17016   17037   17046       2   17013   17034
   17016       2   17013   17034   17043       2   17004   17022   17010       2
   17001   17016   17034       2   17001   17016   17037       2   16998   16980
   17001       2   16998   17013   17034       2   16989   17010   17022       2
   16986   16968   16989       2   16986   17004   17022       2   16980   16998
   17013       2   16980   17001   17016       2   16977   16998   16980       2
   16977   16998   17013       2   16974   16962   16977       2   16974   16989
   17010       2   16968   16986   17004       2   16968   16989   16974       2
   16968   16989   17010       2   16965   16980   16998       2   16965   16980
   17001       2   16962   16956   16965       2   16962   16974   16989       2
   16962   16977   16998       2   16959   16956   16962       2   16959   16956
   16965       2   16959   16968   16986       2   16959   16968   16989       2
   16956   16959   16968       2   16956   16962   16974       2   16956   16962
   16977       2   16956   16965   16980       2   17151   17160   17154       2
   17145   17154   17160       2   17142   17124   17145       2   17142   17151
   17160       2   17124   17142   17151       2   17124   17145   17154       2
   17121   17142   17124       2   17121   17142   17151       2   17112   17130
   17118       2   17109   17124   17142       2   17109   17124   17145       2
   17106   17088   17109       2   17106   17121   17142       2   17097   17118
   17130       2   17094   17076   17097       2   17094   17112   17130       2
   17088   17106   17121       2   17088   17109   17124       2   17085   17106
   17088       2   17085   17106   17121       2   17082   17070   17085       2
   17082   17097   17118       2   17076   17094   17112       2   17076   17097
   17082       2   17076   17097   17118       2   17073   17088   17106       2
   17073   17088   17109       2   17070   17064   17073       2   17070   17082
   17097       2   17070   17085   17106       2   17067   17064   17070       2
   17067   17064   17073       2   17067   17076   17094       2   17067   17076
   17097       2   17064   17067   17076       2   17064   17070   17082       2
   17064   17070   17085       2   17064   17073   17088       2   17259   17268
   17262       2   17253   17262   17268       2   17250   17232   17253       2
   17250   17259   17268       2   17232   17250   17259       2   17232   17253
   17262       2   17229   17250   17232       2   17229   17250   17259       2
   17220   17238   17226       2   17217   17232   17250       2   17217   17232
   17253       2   17214   17196   17217       2   17214   17229   17250       2
   17205   17226   17238       2   17202   17184   17205       2   17202   17220
   17238       2   17196   17214   17229       2   17196   17217   17232       2
   17193   17214   17196       2   17193   17214   17229       2   17190   17178
   17193       2   17190   17205   17226       2   17184   17202   17220       2
   17184   17205   17190       2   17184   17205   17226       2   17181   17196
   17214       2   17181   17196   17217       2   17178   17172   17181       2
   17178   17190   17205       2   17178   17193   17214       2   17175   17172
   17178       2   17175   17172   17181       2   17175   17184   17202       2
   17175   17184   17205       2   17172   17175   17184       2   17172   17178
   17190       2   17172   17178   17193       2   17172   17181   17196       2
   17367   17376   17370       2   17361   17370   17376       2   17358   17340
   17361       2   17358   17367   17376       2   17340   17358   17367       2
   17340   17361   17370       2   17337   17358   17340       2   17337   17358
   17367       2   17328   17346   17334       2   17325   17340   17358       2
   17325   17340   17361       2   17322   17304   17325       2   17322   17337
   17358       2   17313   17334   17346       2   17310   17292   17313       2
   17310   17328   17346       2   17304   17322   17337       2   17304   17325
   17340       2   17301   17322   17304       2   17301   17322   17337       2
   17298   17286   17301       2   17298   17313   17334       2   17292   17310
   17328       2   17292   17313   17298       2   17292   17313   17334       2
   17289   17304   17322       2   17289   17304   17325       2   17286   17280
   17289       2   17286   17298   17313       2   17286   17301   17322       2
   17283   17280   17286       2   17283   17280   17289       2   17283   17292
   17310       2   17283   17292   17313       2   17280   17283   17292       2
   17280   17286   17298       2   17280   17286   17301       2   17280   17289
   17304       2   17475   17484   17478       2   17469   17478   17484       2
   17466   17448   17469       2   17466   17475   17484       2   17448   17466
   17475       2   17448   17469   17478       2   17445   17466   17448       2
   17445   17466   17475       2   17436   17454   17442       2   17433   17448
   17466       2   17433   17448   17469       2   17430   17412   17433       2
   17430   17445   17466       2   17421   17442   17454       2   17418   17400
   17421       2   17418   17436   17454       2   17412   17430   17445       2
   17412   17433   17448       2   17409   17430   17412       2   17409   17430
   17445       2   17406   17394   17409       2   17406   17421   17442       2
   17400   17418   17436       2   17400   17421   17406       2   17400   17421
   17442       2   17397   17412   17430       2   17397   17412   17433       2
   17394   17388   17397       2   17394   17406   17421       2   17394   17409
   17430       2   17391   17388   17394       2   17391   17388   17397       2
   17391   17400   17418       2   17391   17400   17421       2   17388   17391
   17400       2   17388   17394   17406       2   17388   17394   17409       2
   17388   17397   17412       2   17583   17592   17586       2   17577   17586
   17592       2   17574   17556   17577       2   17574   17583   17592       2
   17556   17574   17583       2   17556   17577   17586       2   17553   17574
   17556       2   17553   17574   17583       2   17544   17562   17550       2
   17541   17556   17574       2   17541   17556   17577       2   17538   17520
   17541       2   17538   17553   17574       2   17529   17550   17562       2
   17526   17508   17529       2   17526   17544   17562       2   17520   17538
   17553       2   17520   17541   17556       2   17517   17538   17520       2
   17517   17538   17553       2   17514   17502   17517       2   17514   17529
   17550       2   17508   17526   17544       2   17508   17529   17514       2
   17508   17529   17550       2   17505   17520   17538       2   17505   17520
   17541       2   17502   17496   17505       2   17502   17514   17529       2
   17502   17517   17538       2   17499   17496   17502       2   17499   17496
   17505       2   17499   17508   17526       2   17499   17508   17529       2
   17496   17499   17508       2   17496   17502   17514       2   17496   17502
   17517       2   17496   17505   17520       2   17691   17700   17694       2
   17685   17694   17700       2   17682   17664   17685       2   17682   17691
   17700       2   17664   17682   17691       2   17664   17685   17694       2
   17661   17682   17664       2   17661   17682   17691       2   17652   17670
   17658       2   17649   17664   17682       2   17649   17664   17685       2
   17646   17628   17649       2   17646   17661   17682       2   17637   17658
   17670       2   17634   17616   17637       2   17634   17652   17670       2
   17628   17646   17661       2   17628   17649   17664       2   17625   17646
   17628       2   17625   17646   17661       2   17622   17610   17625       2
   17622   17637   17658       2   17616   17634   17652       2   17616   17637
   17622       2   17616   17637   17658       2   17613   17628   17646       2
   17613   17628   17649       2   17610   17604   17613       2   17610   17622
   17637       2   17610   17625   17646       2   17607   17604   17610       2
   17607   17604   17613       2   17607   17616   17634       2   17607   17616
   17637       2   17604   17607   17616       2   17604   17610   17622       2
   17604   17610   17625       2   17604   17613   17628       2   17799   17808
   17802       2   17793   17802   17808       2   17790   17772   17793       2
   17790   17799   17808       2   17772   17790   17799       2   17772   17793
   17802       2   17769   17790   17772       2   17769   17790   17799       2
   17760   17778   17766       2   17757   17772   17790       2   17757   17772
   17793       2   17754   17736   17757       2   17754   17769   17790       2
   17745   17766   17778       2   17742   17724   17745       2   17742   17760
   17778       2   17736   17754   17769       2   17736   17757   17772       2
   17733   17754   17736       2   17733   17754   17769       2   17730   17718
   17733       2   17730   17745   17766       2   17724   17742   17760       2
   17724   17745   17730       2   17724   17745   17766       2   17721   17736
   17754       2   17721   17736   17757       2   17718   17712   17721       2
   17718   17730   17745       2   17718   17733   17754       2   17715   17712
   17718       2   17715   17712   17721       2   17715   17724   17742       2
   17715   17724   17745       2   17712   17715   17724       2   17712   17718
   17730       2   17712   17718   17733       2   17712   17721   17736       2
   17907   17916   17910       2   17901   17910   17916       2   17898   17880
   17901       2   17898   17907   17916       2   17880   17898   17907       2
   17880   17901   17910       2   17877   17898   17880       2   17877   17898
   17907       2   17868   17886   17874       2   17865   17880   17898       2
   17865   17880   17901       2   17862   17844   17865       2   17862   17877
   17898       2   17853   17874   17886       2   17850   17832   17853       2
   17850   17868   17886       2   17844   17862   17877       2   17844   17865
   17880       2   17841   17862   17844       2   17841   17862   17877       2
   17838   17826   17841       2   17838   17853   17874       2   17832   17850
   17868       2   17832   17853   17838       2   17832   17853   17874       2
   17829   17844   17862       2   17829   17844   17865       2   17826   17820
   17829       2   17826   17838   17853       2   17826   17841   17862       2
   17823   17820   17826       2   17823   17820   17829       2   17823   17832
   17850       2   17823   17832   17853       2   17820   17823   17832       2
   17820   17826   17838       2   17820   17826   17841       2   17820   17829
   17844       2   18015   18024   18018       2   18009   18018   18024       2
   18006   17988   18009       2   18006   18015   18024       2   17988   18006
   18015       2   17988   18009   18018       2   17985   18006   17988       2
   17985   18006   18015       2   17976   17994   17982       2   17973   17988
   18006       2   17973   17988   18009       2   17970   17952   17973       2
   17970   17985   18006       2   17961   17982   17994       2   17958   17940
   17961       2   17958   17976   17994       2   17952   17970   17985       2
   17952   17973   17988       2   17949   17970   17952       2   17949   17970
   17985       2   17946   17934   17949       2   17946   17961   17982       2
   17940   17958   17976       2   17940   17961   17946       2   17940   17961
   17982       2   17937   17952   17970       2   17937   17952   17973       2
   17934   17928   17937       2   17934   17946   17961       2   17934   17949
   17970       2   17931   17928   17934       2   17931   17928   17937       2
   17931   17940   17958       2   17931   17940   17961       2   17928   17931
   17940       2   17928   17934   17946       2   17928   17934   17949       2
   17928   17937   17952       2   18123   18132   18126       2   18117   18126
   18132       2   18114   18096   18117       2   18114   18123   18132       2
   18096   18114   18123       2   18096   18117   18126       2   18093   18114
   18096       2   18093   18114   18123       2   18084   18102   18090       2
   18081   18096   18114       2   18081   18096   18117       2   18078   18060
   18081       2   18078   18093   18114       2   18069   18090   18102       2
   18066   18048   18069       2   18066   18084   18102       2   18060   18078
   18093       2   18060   18081   18096       2   18057   18078   18060       2
   18057   18078   18093       2   18054   18042   18057       2   18054   18069
   18090       2   18048   18066   18084       2   18048   18069   18054       2
   18048   18069   18090       2   18045   18060   18078       2   18045   18060
   18081       2   18042   18036   18045       2   18042   18054   18069       2
   18042   18057   18078       2   18039   18036   18042       2   18039   18036
   18045       2   18039   18048   18066       2   18039   18048   18069       2
   18036   18039   18048       2   18036   18042   18054       2   18036   18042
   18057       2   18036   18045   18060       2   18231   18240   18234       2
   18225   18234   18240       2   18222   18204   18225       2   18222   18231
   18240       2   18204   18222   18231       2   18204   18225   18234       2
   18201   18222   18204       2   18201   18222   18231       2   18192   18210
   18198       2   18189   18204   18222       2   18189   18204   18225       2
   18186   18168   18189       2   18186   18201   18222       2   18177   18198
   18210       2   18174   18156   18177       2   18174   18192   18210       2
   18168   18186   18201       2   18168   18189   18204       2   18165   18186
   18168       2   18165   18186   18201       2   18162   18150   18165       2
   18162   18177   18198       2   18156   18174   18192       2   18156   18177
   18162       2   18156   18177   18198       2   18153   18168   18186       2
   18153   18168   18189       2   18150   18144   18153       2   18150   18162
   18177       2   18150   18165   18186       2   18147   18144   18150       2
   18147   18144   18153       2   18147   18156   18174       2   18147   18156
   18177       2   18144   18147   18156       2   18144   18150   18162       2
   18144   18150   18165       2   18144   18153   18168       2   18339   18348
   18342       2   18333   18342   18348       2   18330   18312   18333       2
   18330   18339   18348       2   18312   18330   18339       2   18312   18333
   18342       2   18309   18330   18312       2   18309   18330   18339       2
   18300   18318   18306       2   18297   18312   18330       2   18297   18312
   18333       2   18294   18276   18297       2   18294   18309   18330       2
   18285   18306   18318       2   18282   18264   18285       2   18282   18300
   18318       2   18276   18294   18309       2   18276   18297   18312       2
   18273   18294   18276       2   18273   18294   18309       2   18270   18258
   18273       2   18270   18285   18306       2   18264   18282   18300       2
   18264   18285   18270       2   18264   18285   18306       2   18261   18276
   18294       2   18261   18276   18297       2   18258   18252   18261       2
   18258   18270   18285       2   18258   18273   18294       2   18255   18252
   18258       2   18255   18252   18261       2   18255   18264   18282       2
   18255   18264   18285       2   18252   18255   18264       2   18252   18258
   18270       2   18252   18258   18273       2   18252   18261   18276       2
   18447   18456   18450       2   18441   18450   18456       2   18438   18420
   18441       2   18438   18447   18456       2   18420   18438   18447       2
   18420   18441   18450       2   18417   18438   18420       2   18417   18438
   18447       2   18408   18426   18414       2   18405   18420   18438       2
   18405   18420   18441       2   18402   18384   18405       2   18402   18417
   18438       2   18393   18414   18426       2   18390   18372   18393       2
   18390   18408   18426       2   18384   18402   18417       2   18384   18405
   18420       2   18381   18402   18384       2   18381   18402   18417       2
   18378   18366   18381       2   18378   18393   18414       2   18372   18390
   18408       2   18372   18393   18378       2   18372   18393   18414       2
   18369   18384   18402       2   18369   18384   18405       2   18366   18360
   18369       2   18366   18378   18393       2   18366   18381   18402       2
   18363   18360   18366       2   18363   18360   18369       2   18363   18372
   18390       2   18363   18372   18393       2   18360   18363   18372       2
   18360   18366   18378       2   18360   18366   18381       2   18360   18369
   18384       2   18555   18564   18558       2   18549   18558   18564       2
   18546   18528   18549       2   18546   18555   18564       2   18528   18546
   18555       2   18528   18549   18558       2   18525   18546   18528       2
   18525   18546   18555       2   18516   18534   18522       2   18513   18528
   18546       2   18513   18528   18549       2   18510   18492   18513       2
   18510   18525   18546       2   18501   18522   18534       2   18498   18480
   18501       2   18498   18516   18534       2   18492   18510   18525       2
   18492   18513   18528       2   18489   18510   18492       2   18489   18510
   18525       2   18486   18474   18489       2   18486   18501   18522       2
   18480   18498   18516       2   18480   18501   18486       2   18480   18501
   18522       2   18477   18492   18510       2   18477   18492   18513       2
   18474   18468   18477       2   18474   18486   18501       2   18474   18489
   18510       2   18471   18468   18474       2   18471   18468   18477       2
   18471   18480   18498       2   18471   18480   18501       2   18468   18471
   18480       2   18468   18474   18486       2   18468   18474   18489       2
   18468   18477   18492       2   18663   18672   18666       2   18657   18666
   18672       2   18654   18636   18657       2   18654   18663   18672       2
   18636   18654   18663       2   18636   18657   18666       2   18633   18654
   18636       2   18633   18654   18663       2   18624   18642   18630       2
   18621   18636   18654       2   18621   18636   18657       2   18618   18600
   18621       2   18618   18633   18654       2   18609   18630   18642       2
   18606   18588   18609       2   18606   18624   18642       2   18600   18618
   18633       2   18600   18621   18636       2   18597   18618   18600       2
   18597   18618   18633       2   18594   18582   18597       2   18594   18609
   18630       2   18588   18606   18624       2   18588   18609   18594       2
   18588   18609   18630       2   18585   18600   18618       2   18585   18600
   18621       2   18582   18576   18585       2   18582   18594   18609       2
   18582   18597   18618       2   18579   18576   18582       2   18579   18576
   18585       2   18579   18588   18606       2   18579   18588   18609       2
   18576   18579   18588       2   18576   18582   18594       2   18576   18582
   18597       2   18576   18585   18600       2   18771   18780   18774       2
   18765   18774   18780       2   18762   18744   18765       2   18762   18771
   18780       2   18744   18762   18771       2   18744   18765   18774       2
   18741   18762   18744       2   18741   18762   18771       2   18732   18750
   18738       2   18729   18744   18762       2   18729   18744   18765       2
   18726   18708   18729       2   18726   18741   18762       2   18717   18738
   18750       2   18714   18696   18717       2   18714   18732   18750       2
   18708   18726   18741       2   18708   18729   18744       2   18705   18726
   18708       2   18705   18726   18741       2   18702   18690   18705       2
   18702   18717   18738       2   18696   18714   18732       2   18696   18717
   18702       2   18696   18717   18738       2   18693   18708   18726       2
   18693   18708   18729       2   18690   18684   18693       2   18690   18702
   18717       2   18690   18705   18726       2   18687   18684   18690       2
   18687   18684   18693       2   18687   18696   18714       2   18687   18696
   18717       2   18684   18687   18696       2   18684   18690   18702       2
   18684   18690   18705       2   18684   18693   18708       2   18879   18888
   18882       2   18873   18882   18888       2   18870   18852   18873       2
   18870   18879   18888       2   18852   18870   18879       2   18852   18873
   18882       2   18849   18870   18852       2   18849   18870   18879       2
   18840   18858   18846       2   18837   18852   18870       2   18837   18852
   18873       2   18834   18816   18837       2   18834   18849   18870       2
   18825   18846   18858       2   18822   18804   18825       2   18822   18840
   18858       2   18816   18834   18849       2   18816   18837   18852       2
   18813   18834   18816       2   18813   18834   18849       2   18810   18798
   18813       2   18810   18825   18846       2   18804   18822   18840       2
   18804   18825   18810       2   18804   18825   18846       2   18801   18816
   18834       2   18801   18816   18837       2   18798   18792   18801       2
   18798   18810   18825       2   18798   18813   18834       2   18795   18792
   18798       2   18795   18792   18801       2   18795   18804   18822       2
   18795   18804   18825       2   18792   18795   18804       2   18792   18798
   18810       2   18792   18798   18813       2   18792   18801   18816       2
   18987   18996   18990       2   18981   18990   18996       2   18978   18960
   18981       2   18978   18987   18996       2   18960   18978   18987       2
   18960   18981   18990       2   18957   18978   18960       2   18957   18978
   18987       2   18948   18966   18954       2   18945   18960   18978       2
   18945   18960   18981       2   18942   18924   18945       2   18942   18957
   18978       2   18933   18954   18966       2   18930   18912   18933       2
   18930   18948   18966       2   18924   18942   18957       2   18924   18945
   18960       2   18921   18942   18924       2   18921   18942   18957       2
   18918   18906   18921       2   18918   18933   18954       2   18912   18930
   18948       2   18912   18933   18918       2   18912   18933   18954       2
   18909   18924   18942       2   18909   18924   18945       2   18906   18900
   18909       2   18906   18918   18933       2   18906   18921   18942       2
   18903   18900   18906       2   18903   18900   18909       2   18903   18912
   18930       2   18903   18912   18933       2   18900   18903   18912       2
   18900   18906   18918       2   18900   18906   18921       2   18900   18909
   18924       2   19095   19104   19098       2   19089   19098   19104       2
   19086   19068   19089       2   19086   19095   19104       2   19068   19086
   19095       2   19068   19089   19098       2   19065   19086   19068       2
   19065   19086   19095       2   19056   19074   19062       2   19053   19068
   19086       2   19053   19068   19089       2   19050   19032   19053       2
   19050   19065   19086       2   19041   19062   19074       2   19038   19020
   19041       2   19038   19056   19074       2   19032   19050   19065       2
   19032   19053   19068       2   19029   19050   19032       2   19029   19050
   19065       2   19026   19014   19029       2   19026   19041   19062       2
   19020   19038   19056       2   19020   19041   19026       2   19020   19041
   19062       2   19017   19032   19050       2   19017   19032   19053       2
   19014   19008   19017       2   19014   19026   19041       2   19014   19029
   19050       2   19011   19008   19014       2   19011   19008   19017       2
   19011   19020   19038       2   19011   19020   19041       2   19008   19011
   19020       2   19008   19014   19026       2   19008   19014   19029       2
   19008   19017   19032       2   19203   19212   19206       2   19197   19206
   19212       2   19194   19176   19197       2   19194   19203   19212       2
   19176   19194   19203       2   19176   19197   19206       2   19173   19194
   19176       2   19173   19194   19203       2   19164   19182   19170       2
   19161   19176   19194       2   19161   19176   19197       2   19158   19140
   19161       2   19158   19173   19194       2   19149   19170   19182       2
   19146   19128   19149       2   19146   19164   19182       2   19140   19158
   19173       2   19140   19161   19176       2   19137   19158   19140       2
   19137   19158   19173       2   19134   19122   19137       2   19134   19149
   19170       2   19128   19146   19164       2   19128   19149   19134       2
   19128   19149   19170       2   19125   19140   19158       2   19125   19140
   19161       2   19122   19116   19125       2   19122   19134   19149       2
   19122   19137   19158       2   19119   19116   19122       2   19119   19116
   19125       2   19119   19128   19146       2   19119   19128   19149       2
   19116   19119   19128       2   19116   19122   19134       2   19116   19122
   19137       2   19116   19125   19140       2   19311   19320   19314       2
   19305   19314   19320       2   19302   19284   19305       2   19302   19311
   19320       2   19284   19302   19311       2   19284   19305   19314       2
   19281   19302   19284       2   19281   19302   19311       2   19272   19290
   19278       2   19269   19284   19302       2   19269   19284   19305       2
   19266   19248   19269       2   19266   19281   19302       2   19257   19278
   19290       2   19254   19236   19257       2   19254   19272   19290       2
   19248   19266   19281       2   19248   19269   19284       2   19245   19266
   19248       2   19245   19266   19281       2   19242   19230   19245       2
   19242   19257   19278       2   19236   19254   19272       2   19236   19257
   19242       2   19236   19257   19278       2   19233   19248   19266       2
   19233   19248   19269       2   19230   19224   19233       2   19230   19242
   19257       2   19230   19245   19266       2   19227   19224   19230       2
   19227   19224   19233       2   19227   19236   19254       2   19227   19236
   19257       2   19224   19227   19236       2   19224   19230   19242       2
   19224   19230   19245       2   19224   19233   19248       2   19419   19428
   19422       2   19413   19422   19428       2   19410   19392   19413       2
   19410   19419   19428       2   19392   19410   19419       2   19392   19413
   19422       2   19389   19410   19392       2   19389   19410   19419       2
   19380   19398   19386       2   19377   19392   19410       2   19377   19392
   19413       2   19374   19356   19377       2   19374   19389   19410       2
   19365   19386   19398       2   19362   19344   19365       2   19362   19380
   19398       2   19356   19374   19389       2   19356   19377   19392       2
   19353   19374   19356       2   19353   19374   19389       2   19350   19338
   19353       2   19350   19365   19386       2   19344   19362   19380       2
   19344   19365   19350       2   19344   19365   19386       2   19341   19356
   19374       2   19341   19356   19377       2   19338   19332   19341       2
   19338   19350   19365       2   19338   19353   19374       2   19335   19332
   19338       2   19335   19332   19341       2   19335   19344   19362       2
   19335   19344   19365       2   19332   19335   19344       2   19332   19338
   19350       2   19332   19338   19353       2   19332   19341   19356       2
   19527   19536   19530       2   19521   19530   19536       2   19518   19500
   19521       2   19518   19527   19536       2   19500   19518   19527       2
   19500   19521   19530       2   19497   19518   19500       2   19497   19518
   19527       2   19488   19506   19494       2   19485   19500   19518       2
   19485   19500   19521       2   19482   19464   19485       2   19482   19497
   19518       2   19473   19494   19506       2   19470   19452   19473       2
   19470   19488   19506       2   19464   19482   19497       2   19464   19485
   19500       2   19461   19482   19464       2   19461   19482   19497       2
   19458   19446   19461       2   19458   19473   19494       2   19452   19470
   19488       2   19452   19473   19458       2   19452   19473   19494       2
   19449   19464   19482       2   19449   19464   19485       2   19446   19440
   19449       2   19446   19458   19473       2   19446   19461   19482       2
   19443   19440   19446       2   19443   19440   19449       2   19443   19452
   19470       2   19443   19452   19473       2   19440   19443   19452       2
   19440   19446   19458       2   19440   19446   19461       2   19440   19449
   19464       2   19635   19644   19638       2   19629   19638   19644       2
   19626   19608   19629       2   19626   19635   19644       2   19608   19626
   19635       2   19608   19629   19638       2   19605   19626   19608       2
   19605   19626   19635       2   19596   19614   19602       2   19593   19608
   19626       2   19593   19608   19629       2   19590   19572   19593       2
   19590   19605   19626       2   19581   19602   19614       2   19578   19560
   19581       2   19578   19596   19614       2   19572   19590   19605       2
   19572   19593   19608       2   19569   19590   19572       2   19569   19590
   19605       2   19566   19554   19569       2   19566   19581   19602       2
   19560   19578   19596       2   19560   19581   19566       2   19560   19581
   19602       2   19557   19572   19590       2   19557   19572   19593       2
   19554   19548   19557       2   19554   19566   19581       2   19554   19569
   19590       2   19551   19548   19554       2   19551   19548   19557       2
   19551   19560   19578       2   19551   19560   19581       2   19548   19551
   19560       2   19548   19554   19566       2   19548   19554   19569       2
   19548   19557   19572       2   19743   19752   19746       2   19737   19746
   19752       2   19734   19716   19737       2   19734   19743   19752       2
   19716   19734   19743       2   19716   19737   19746       2   19713   19734
   19716       2   19713   19734   19743       2   19704   19722   19710       2
   19701   19716   19734       2   19701   19716   19737       2   19698   19680
   19701       2   19698   19713   19734       2   19689   19710   19722       2
   19686   19668   19689       2   19686   19704   19722       2   19680   19698
   19713       2   19680   19701   19716       2   19677   19698   19680       2
   19677   19698   19713       2   19674   19662   19677       2   19674   19689
   19710       2   19668   19686   19704       2   19668   19689   19674       2
   19668   19689   19710       2   19665   19680   19698       2   19665   19680
   19701       2   19662   19656   19665       2   19662   19674   19689       2
   19662   19677   19698       2   19659   19656   19662       2   19659   19656
   19665       2   19659   19668   19686       2   19659   19668   19689       2
   19656   19659   19668       2   19656   19662   19674       2   19656   19662
   19677       2   19656   19665   19680       2   19851   19860   19854       2
   19845   19854   19860       2   19842   19824   19845       2   19842   19851
   19860       2   19824   19842   19851       2   19824   19845   19854       2
   19821   19842   19824       2   19821   19842   19851       2   19812   19830
   19818       2   19809   19824   19842       2   19809   19824   19845       2
   19806   19788   19809       2   19806   19821   19842       2   19797   19818
   19830       2   19794   19776   19797       2   19794   19812   19830       2
   19788   19806   19821       2   19788   19809   19824       2   19785   19806
   19788       2   19785   19806   19821       2   19782   19770   19785       2
   19782   19797   19818       2   19776   19794   19812       2   19776   19797
   19782       2   19776   19797   19818       2   19773   19788   19806       2
   19773   19788   19809       2   19770   19764   19773       2   19770   19782
   19797       2   19770   19785   19806       2   19767   19764   19770       2
   19767   19764   19773       2   19767   19776   19794       2   19767   19776
   19797       2   19764   19767   19776       2   19764   19770   19782       2
   19764   19770   19785       2   19764   19773   19788       2   19959   19968
   19962       2   19953   19962   19968       2   19950   19932   19953       2
   19950   19959   19968       2   19932   19950   19959       2   19932   19953
   19962       2   19929   19950   19932       2   19929   19950   19959       2
   19920   19938   19926       2   19917   19932   19950       2   19917   19932
   19953       2   19914   19896   19917       2   19914   19929   19950       2
   19905   19926   19938       2   19902   19884   19905       2   19902   19920
   19938       2   19896   19914   19929       2   19896   19917   19932       2
   19893   19914   19896       2   19893   19914   19929       2   19890   19878
   19893       2   19890   19905   19926       2   19884   19902   19920       2
   19884   19905   19890       2   19884   19905   19926       2   19881   19896
   19914       2   19881   19896   19917       2   19878   19872   19881       2
   19878   19890   19905       2   19878   19893   19914       2   19875   19872
   19878       2   19875   19872   19881       2   19875   19884   19902       2
   19875   19884   19905       2   19872   19875   19884       2   19872   19878
   19890       2   19872   19878   19893       2   19872   19881   19896       2
   20067   20076   20070       2   20061   20070   20076       2   20058   20040
   20061       2   20058   20067   20076       2   20040   20058   20067       2
   20040   20061   20070       2   20037   20058   20040       2   20037   20058
   20067       2   20028   20046   20034       2   20025   20040   20058       2
   20025   20040   20061       2   20022   20004   20025       2   20022   20037
   20058       2   20013   20034   20046       2   20010   19992   20013       2
   20010   20028   20046       2   20004   20022   20037       2   20004   20025
   20040       2   20001   20022   20004       2   20001   20022   20037       2
   19998   19986   20001       2   19998   20013   20034       2   19992   20010
   20028       2   19992   20013   19998       2   19992   20013   20034       2
   19989   20004   20022       2   19989   20004   20025       2   19986   19980
   19989       2   19986   19998   20013       2   19986   20001   20022       2
   19983   19980   19986       2   19983   19980   19989       2   19983   19992
   20010       2   19983   19992   20013       2   19980   19983   19992       2
   19980   19986   19998       2   19980   19986   20001       2   19980   19989
   20004       2   20175   20184   20178       2   20169   20178   20184       2
   20166   20148   20169       2   20166   20175   20184       2   20148   20166
   20175       2   20148   20169   20178       2   20145   20166   20148       2
   20145   20166   20175       2   20136   20154   20142       2   20133   20148
   20166       2   20133   20148   20169       2   20130   20112   20133       2
   20130   20145   20166       2   20121   20142   20154       2   20118   20100
   20121       2   20118   20136   20154       2   20112   20130   20145       2
   20112   20133   20148       2   20109   20130   20112       2   20109   20130
   20145       2   20106   20094   20109       2   20106   20121   20142       2
   20100   20118   20136       2   20100   20121   20106       2   20100   20121
   20142       2   20097   20112   20130       2   20097   20112   20133       2
   20094   20088   20097       2   20094   20106   20121       2   20094   20109
   20130       2   20091   20088   20094       2   20091   20088   20097       2
   20091   20100   20118       2   20091   20100   20121       2   20088   20091
   20100       2   20088   20094   20106       2   20088   20094   20109       2
   20088   20097   20112       2   20283   20292   20286       2   20277   20286
   20292       2   20274   20256   20277       2   20274   20283   20292       2
   20256   20274   20283       2   20256   20277   20286       2   20253   20274
   20256       2   20253   20274   20283       2   20244   20262   20250       2
   20241   20256   20274       2   20241   20256   20277       2   20238   20220
   20241       2   20238   20253   20274       2   20229   20250   20262       2
   20226   20208   20229       2   20226   20244   20262       2   20220   20238
   20253       2   20220   20241   20256       2   20217   20238   20220       2
   20217   20238   20253       2   20214   20202   20217       2   20214   20229
   20250       2   20208   20226   20244       2   20208   20229   20214       2
   20208   20229   20250       2   20205   20220   20238       2   20205   20220
   20241       2   20202   20196   20205       2   20202   20214   20229       2
   20202   20217   20238       2   20199   20196   20202       2   20199   20196
   20205       2   20199   20208   20226       2   20199   20208   20229       2
   20196   20199   20208       2   20196   20202   20214       2   20196   20202
   20217       2   20196   20205   20220       2   20391   20400   20394       2
   20385   20394   20400       2   20382   20364   20385       2   20382   20391
   20400       2   20364   20382   20391       2   20364   20385   20394       2
   20361   20382   20364       2   20361   20382   20391       2   20352   20370
   20358       2   20349   20364   20382       2   20349   20364   20385       2
   20346   20328   20349       2   20346   20361   20382       2   20337   20358
   20370       2   20334   20316   20337       2   20334   20352   20370       2
   20328   20346   20361       2   20328   20349   20364       2   20325   20346
   20328       2   20325   20346   20361       2   20322   20310   20325       2
   20322   20337   20358       2   20316   20334   20352       2   20316   20337
   20322       2   20316   20337   20358       2   20313   20328   20346       2
   20313   20328   20349       2   20310   20304   20313       2   20310   20322
   20337       2   20310   20325   20346       2   20307   20304   20310       2
   20307   20304   20313       2   20307   20316   20334       2   20307   20316
   20337       2   20304   20307   20316       2   20304   20310   20322       2
   20304   20310   20325       2   20304   20313   20328       2   20499   20508
   20502       2   20493   20502   20508       2   20490   20472   20493       2
   20490   20499   20508       2   20472   20490   20499       2   20472   20493
   20502       2   20469   20490   20472       2   20469   20490   20499       2
   20460   20478   20466       2   20457   20472   20490       2   20457   20472
   20493       2   20454   20436   20457       2   20454   20469   20490       2
   20445   20466   20478       2   20442   20424   20445       2   20442   20460
   20478       2   20436   20454   20469       2   20436   20457   20472       2
   20433   20454   20436       2   20433   20454   20469       2   20430   20418
   20433       2   20430   20445   20466       2   20424   20442   20460       2
   20424   20445   20430       2   20424   20445   20466       2   20421   20436
   20454       2   20421   20436   20457       2   20418   20412   20421       2
   20418   20430   20445       2   20418   20433   20454       2   20415   20412
   20418       2   20415   20412   20421       2   20415   20424   20442       2
   20415   20424   20445       2   20412   20415   20424       2   20412   20418
   20430       2   20412   20418   20433       2   20412   20421   20436       2
   20607   20616   20610       2   20601   20610   20616       2   20598   20580
   20601       2   20598   20607   20616       2   20580   20598   20607       2
   20580   20601   20610       2   20577   20598   20580       2   20577   20598
   20607       2   20568   20586   20574       2   20565   20580   20598       2
   20565   20580   20601       2   20562   20544   20565       2   20562   20577
   20598       2   20553   20574   20586       2   20550   20532   20553       2
   20550   20568   20586       2   20544   20562   20577       2   20544   20565
   20580       2   20541   20562   20544       2   20541   20562   20577       2
   20538   20526   20541       2   20538   20553   20574       2   20532   20550
   20568       2   20532   20553   20538       2   20532   20553   20574       2
   20529   20544   20562       2   20529   20544   20565       2   20526   20520
   20529       2   20526   20538   20553       2   20526   20541   20562       2
   20523   20520   20526       2   20523   20520   20529       2   20523   20532
   20550       2   20523   20532   20553       2   20520   20523   20532       2
   20520   20526   20538       2   20520   20526   20541       2   20520   20529
   20544       2   20715   20724   20718       2   20709   20718   20724       2
   20706   20688   20709       2   20706   20715   20724       2   20688   20706
   20715       2   20688   20709   20718       2   20685   20706   20688       2
   20685   20706   20715       2   20676   20694   20682       2   20673   20688
   20706       2   20673   20688   20709       2   20670   20652   20673       2
   20670   20685   20706       2   20661   20682   20694       2   20658   20640
   20661       2   20658   20676   20694       2   20652   20670   20685       2
   20652   20673   20688       2   20649   20670   20652       2   20649   20670
   20685       2   20646   20634   20649       2   20646   20661   20682       2
   20640   20658   20676       2   20640   20661   20646       2   20640   20661
   20682       2   20637   20652   20670       2   20637   20652   20673       2
   20634   20628   20637       2   20634   20646   20661       2   20634   20649
   20670       2   20631   20628   20634       2   20631   20628   20637       2
   20631   20640   20658       2   20631   20640   20661       2   20628   20631
   20640       2   20628   20634   20646       2   20628   20634   20649       2
   20628   20637   20652       2   20823   20832   20826       2   20817   20826
   20832       2   20814   20796   20817       2   20814   20823   20832       2
   20796   20814   20823       2   20796   20817   20826       2   20793   20814
   20796       2   20793   20814   20823       2   20784   20802   20790       2
   20781   20796   20814       2   20781   20796   20817       2   20778   20760
   20781       2   20778   20793   20814       2   20769   20790   20802       2
   20766   20748   20769       2   20766   20784   20802       2   20760   20778
   20793       2   20760   20781   20796       2   20757   20778   20760       2
   20757   20778   20793       2   20754   20742   20757       2   20754   20769
   20790       2   20748   20766   20784       2   20748   20769   20754       2
   20748   20769   20790       2   20745   20760   20778       2   20745   20760
   20781       2   20742   20736   20745       2   20742   20754   20769       2
   20742   20757   20778       2   20739   20736   20742       2   20739   20736
   20745       2   20739   20748   20766       2   20739   20748   20769       2
   20736   20739   20748       2   20736   20742   20754       2   20736   20742
   20757       2   20736   20745   20760       2   20931   20940   20934       2
   20925   20934   20940       2   20922   20904   20925       2   20922   20931
   20940       2   20904   20922   20931       2   20904   20925   20934       2
   20901   20922   20904       2   20901   20922   20931       2   20892   20910
   20898       2   20889   20904   20922       2   20889   20904   20925       2
   20886   20868   20889       2   20886   20901   20922       2   20877   20898
   20910       2   20874   20856   20877       2   20874   20892   20910       2
   20868   20886   20901       2   20868   20889   20904       2   20865   20886
   20868       2   20865   20886   20901       2   20862   20850   20865       2
   20862   20877   20898       2   20856   20874   20892       2   20856   20877
   20862       2   20856   20877   20898       2   20853   20868   20886       2
   20853   20868   20889       2   20850   20844   20853       2   20850   20862
   20877       2   20850   20865   20886       2   20847   20844   20850       2
   20847   20844   20853       2   20847   20856   20874       2   20847   20856
   20877       2   20844   20847   20856       2   20844   20850   20862       2
   20844   20850   20865       2   20844   20853   20868       2   21039   21048
   21042       2   21033   21042   21048       2   21030   21012   21033       2
   21030   21039   21048       2   21012   21030   21039       2   21012   21033
   21042       2   21009   21030   21012       2   21009   21030   21039       2
   21000   21018   21006       2   20997   21012   21030       2   20997   21012
   21033       2   20994   20976   20997       2   20994   21009   21030       2
   20985   21006   21018       2   20982   20964   20985       2   20982   21000
   21018       2   20976   20994   21009       2   20976   20997   21012       2
   20973   20994   20976       2   20973   20994   21009       2   20970   20958
   20973       2   20970   20985   21006       2   20964   20982   21000       2
   20964   20985   20970       2   20964   20985   21006       2   20961   20976
   20994       2   20961   20976   20997       2   20958   20952   20961       2
   20958   20970   20985       2   20958   20973   20994       2   20955   20952
   20958       2   20955   20952   20961       2   20955   20964   20982       2
   20955   20964   20985       2   20952   20955   20964       2   20952   20958
   20970       2   20952   20958   20973       2   20952   20961   20976       2
   21147   21156   21150       2   21141   21150   21156       2   21138   21120
   21141       2   21138   21147   21156       2   21120   21138   21147       2
   21120   21141   21150       2   21117   21138   21120       2   21117   21138
   21147       2   21108   21126   21114       2   21105   21120   21138       2
   21105   21120   21141       2   21102   21084   21105       2   21102   21117
   21138       2   21093   21114   21126       2   21090   21072   21093       2
   21090   21108   21126       2   21084   21102   21117       2   21084   21105
   21120       2   21081   21102   21084       2   21081   21102   21117       2
   21078   21066   21081       2   21078   21093   21114       2   21072   21090
   21108       2   21072   21093   21078       2   21072   21093   21114       2
   21069   21084   21102       2   21069   21084   21105       2   21066   21060
   21069       2   21066   21078   21093       2   21066   21081   21102       2
   21063   21060   21066       2   21063   21060   21069       2   21063   21072
   21090       2   21063   21072   21093       2   21060   21063   21072       2
   21060   21066   21078       2   21060   21066   21081       2   21060   21069
   21084       2   21255   21264   21258       2   21249   21258   21264       2
   21246   21228   21249       2   21246   21255   21264       2   21228   21246
   21255       2   21228   21249   21258       2   21225   21246   21228       2
   21225   21246   21255       2   21216   21234   21222       2   21213   21228
   21246       2   21213   21228   21249       2   21210   21192   21213       2
   21210   21225   21246       2   21201   21222   21234       2   21198   21180
   21201       2   21198   21216   21234       2   21192   21210   21225       2
   21192   21213   21228       2   21189   21210   21192       2   21189   21210
   21225       2   21186   21174   21189       2   21186   21201   21222       2
   21180   21198   21216       2   21180   21201   21186       2   21180   21201
   21222       2   21177   21192   21210       2   21177   21192   21213       2
   21174   21168   21177       2   21174   21186   21201       2   21174   21189
   21210       2   21171   21168   21174       2   21171   21168   21177       2
   21171   21180   21198       2   21171   21180   21201       2   21168   21171
   21180       2   21168   21174   21186       2   21168   21174   21189       2
   21168   21177   21192       2   21363   21372   21366       2   21357   21366
   21372       2   21354   21336   21357       2   21354   21363   21372       2
   21336   21354   21363       2   21336   21357   21366       2   21333   21354
   21336       2   21333   21354   21363       2   21324   21342   21330       2
   21321   21336   21354       2   21321   21336   21357       2   21318   21300
   21321       2   21318   21333   21354       2   21309   21330   21342       2
   21306   21288   21309       2   21306   21324   21342       2   21300   21318
   21333       2   21300   21321   21336       2   21297   21318   21300       2
   21297   21318   21333       2   21294   21282   21297       2   21294   21309
   21330       2   21288   21306   21324       2   21288   21309   21294       2
   21288   21309   21330       2   21285   21300   21318       2   21285   21300
   21321       2   21282   21276   21285       2   21282   21294   21309       2
   21282   21297   21318       2   21279   21276   21282       2   21279   21276
   21285       2   21279   21288   21306       2   21279   21288   21309       2
   21276   21279   21288       2   21276   21282   21294       2   21276   21282
   21297       2   21276   21285   21300       2   21471   21480   21474       2
   21465   21474   21480       2   21462   21444   21465       2   21462   21471
   21480       2   21444   21462   21471       2   21444   21465   21474       2
   21441   21462   21444       2   21441   21462   21471       2   21432   21450
   21438       2   21429   21444   21462       2   21429   21444   21465       2
   21426   21408   21429       2   21426   21441   21462       2   21417   21438
   21450       2   21414   21396   21417       2   21414   21432   21450       2
   21408   21426   21441       2   21408   21429   21444       2   21405   21426
   21408       2   21405   21426   21441       2   21402   21390   21405       2
   21402   21417   21438       2   21396   21414   21432       2   21396   21417
   21402       2   21396   21417   21438       2   21393   21408   21426       2
   21393   21408   21429       2   21390   21384   21393       2   21390   21402
   21417       2   21390   21405   21426       2   21387   21384   21390       2
   21387   21384   21393       2   21387   21396   21414       2   21387   21396
   21417       2   21384   21387   21396       2   21384   21390   21402       2
   21384   21390   21405       2   21384   21393   21408       2   21579   21588
   21582       2   21573   21582   21588       2   21570   21552   21573       2
   21570   21579   21588       2   21552   21570   21579       2   21552   21573
   21582       2   21549   21570   21552       2   21549   21570   21579       2
   21540   21558   21546       2   21537   21552   21570       2   21537   21552
   21573       2   21534   21516   21537       2   21534   21549   21570       2
   21525   21546   21558       2   21522   21504   21525       2   21522   21540
   21558       2   21516   21534   21549       2   21516   21537   21552       2
   21513   21534   21516       2   21513   21534   21549       2   21510   21498
   21513       2   21510   21525   21546       2   21504   21522   21540       2
   21504   21525   21510       2   21504   21525   21546       2   21501   21516
   21534       2   21501   21516   21537       2   21498   21492   21501       2
   21498   21510   21525       2   21498   21513   21534       2   21495   21492
   21498       2   21495   21492   21501       2   21495   21504   21522       2
   21495   21504   21525       2   21492   21495   21504       2   21492   21498
   21510       2   21492   21498   21513       2   21492   21501   21516       2
   21687   21696   21690       2   21681   21690   21696       2   21678   21660
   21681       2   21678   21687   21696       2   21660   21678   21687       2
   21660   21681   21690       2   21657   21678   21660       2   21657   21678
   21687       2   21648   21666   21654       2   21645   21660   21678       2
   21645   21660   21681       2   21642   21624   21645       2   21642   21657
   21678       2   21633   21654   21666       2   21630   21612   21633       2
   21630   21648   21666       2   21624   21642   21657       2   21624   21645
   21660       2   21621   21642   21624       2   21621   21642   21657       2
   21618   21606   21621       2   21618   21633   21654       2   21612   21630
   21648       2   21612   21633   21618       2   21612   21633   21654       2
   21609   21624   21642       2   21609   21624   21645       2   21606   21600
   21609       2   21606   21618   21633       2   21606   21621   21642       2
   21603   21600   21606       2   21603   21600   21609       2   21603   21612
   21630       2   21603   21612   21633       2   21600   21603   21612       2
   21600   21606   21618       2   21600   21606   21621       2   21600   21609
   21624       2   21795   21804   21798       2   21789   21798   21804       2
   21786   21768   21789       2   21786   21795   21804       2   21768   21786
   21795       2   21768   21789   21798       2   21765   21786   21768       2
   21765   21786   21795       2   21756   21774   21762       2   21753   21768
   21786       2   21753   21768   21789       2   21750   21732   21753       2
   21750   21765   21786       2   21741   21762   21774       2   21738   21720
   21741       2   21738   21756   21774       2   21732   21750   21765       2
   21732   21753   21768       2   21729   21750   21732       2   21729   21750
   21765       2   21726   21714   21729       2   21726   21741   21762       2
   21720   21738   21756       2   21720   21741   21726       2   21720   21741
   21762       2   21717   21732   21750       2   21717   21732   21753       2
   21714   21708   21717       2   21714   21726   21741       2   21714   21729
   21750       2   21711   21708   21714       2   21711   21708   21717       2
   21711   21720   21738       2   21711   21720   21741       2   21708   21711
   21720       2   21708   21714   21726       2   21708   21714   21729       2
   21708   21717   21732       2   21903   21912   21906       2   21897   21906
   21912       2   21894   21876   21897       2   21894   21903   21912       2
   21876   21894   21903       2   21876   21897   21906       2   21873   21894
   21876       2   21873   21894   21903       2   21864   21882   21870       2
   21861   21876   21894       2   21861   21876   21897       2   21858   21840
   21861       2   21858   21873   21894       2   21849   21870   21882       2
   21846   21828   21849       2   21846   21864   21882       2   21840   21858
   21873       2   21840   21861   21876       2   21837   21858   21840       2
   21837   21858   21873       2   21834   21822   21837       2   21834   21849
   21870       2   21828   21846   21864       2   21828   21849   21834       2
   21828   21849   21870       2   21825   21840   21858       2   21825   21840
   21861       2   21822   21816   21825       2   21822   21834   21849       2
   21822   21837   21858       2   21819   21816   21822       2   21819   21816
   21825       2   21819   21828   21846       2   21819   21828   21849       2
   21816   21819   21828       2   21816   21822   21834       2   21816   21822
   21837       2   21816   21825   21840       2   22011   22020   22014       2
   22005   22014   22020       2   22002   21984   22005       2   22002   22011
   22020       2   21984   22002   22011       2   21984   22005   22014       2
   21981   22002   21984       2   21981   22002   22011       2   21972   21990
   21978       2   21969   21984   22002       2   21969   21984   22005       2
   21966   21948   21969       2   21966   21981   22002       2   21957   21978
   21990       2   21954   21936   21957       2   21954   21972   21990       2
   21948   21966   21981       2   21948   21969   21984       2   21945   21966
   21948       2   21945   21966   21981       2   21942   21930   21945       2
   21942   21957   21978       2   21936   21954   21972       2   21936   21957
   21942       2   21936   21957   21978       2   21933   21948   21966       2
   21933   21948   21969       2   21930   21924   21933       2   21930   21942
   21957       2   21930   21945   21966       2   21927   21924   21930       2
   21927   21924   21933       2   21927   21936   21954       2   21927   21936
   21957       2   21924   21927   21936       2   21924   21930   21942       2
   21924   21930   21945       2   21924   21933   21948       2   22119   22128
   22122       2   22113   22122   22128       2   22110   22092   22113       2
   22110   22119   22128       2   22092   22110   22119       2   22092   22113
   22122       2   22089   22110   22092       2   22089   22110   22119       2
   22080   22098   22086       2   22077   22092   22110       2   22077   22092
   22113       2   22074   22056   22077       2   22074   22089   22110       2
   22065   22086   22098       2   22062   22044   22065       2   22062   22080
   22098       2   22056   22074   22089       2   22056   22077   22092       2
   22053   22074   22056       2   22053   22074   22089       2   22050   22038
   22053       2   22050   22065   22086       2   22044   22062   22080       2
   22044   22065   22050       2   22044   22065   22086       2   22041   22056
   22074       2   22041   22056   22077       2   22038   22032   22041       2
   22038   22050   22065       2   22038   22053   22074       2   22035   22032
   22038       2   22035   22032   22041       2   22035   22044   22062       2
   22035   22044   22065       2   22032   22035   22044       2   22032   22038
   22050       2   22032   22038   22053       2   22032   22041   22056       2
   22227   22236   22230       2   22221   22230   22236       2   22218   22200
   22221       2   22218   22227   22236       2   22200   22218   22227       2
   22200   22221   22230       2   22197   22218   22200       2   22197   22218
   22227       2   22188   22206   22194       2   22185   22200   22218       2
   22185   22200   22221       2   22182   22164   22185       2   22182   22197
   22218       2   22173   22194   22206       2   22170   22152   22173       2
   22170   22188   22206       2   22164   22182   22197       2   22164   22185
   22200       2   22161   22182   22164       2   22161   22182   22197       2
   22158   22146   22161       2   22158   22173   22194       2   22152   22170
   22188       2   22152   22173   22158       2   22152   22173   22194       2
   22149   22164   22182       2   22149   22164   22185       2   22146   22140
   22149       2   22146   22158   22173       2   22146   22161   22182       2
   22143   22140   22146       2   22143   22140   22149       2   22143   22152
   22170       2   22143   22152   22173       2   22140   22143   22152       2
   22140   22146   22158       2   22140   22146   22161       2   22140   22149
   22164       2   22335   22344   22338       2   22329   22338   22344       2
   22326   22308   22329       2   22326   22335   22344       2   22308   22326
   22335       2   22308   22329   22338       2   22305   22326   22308       2
   22305   22326   22335       2   22296   22314   22302       2   22293   22308
   22326       2   22293   22308   22329       2   22290   22272   22293       2
   22290   22305   22326       2   22281   22302   22314       2   22278   22260
   22281       2   22278   22296   22314       2   22272   22290   22305       2
   22272   22293   22308       2   22269   22290   22272       2   22269   22290
   22305       2   22266   22254   22269       2   22266   22281   22302       2
   22260   22278   22296       2   22260   22281   22266       2   22260   22281
   22302       2   22257   22272   22290       2   22257   22272   22293       2
   22254   22248   22257       2   22254   22266   22281       2   22254   22269
   22290       2   22251   22248   22254       2   22251   22248   22257       2
   22251   22260   22278       2   22251   22260   22281       2   22248   22251
   22260       2   22248   22254   22266       2   22248   22254   22269       2
   22248   22257   22272       2   22443   22452   22446       2   22437   22446
   22452       2   22434   22416   22437       2   22434   22443   22452       2
   22416   22434   22443       2   22416   22437   22446       2   22413   22434
   22416       2   22413   22434   22443       2   22404   22422   22410       2
   22401   22416   22434       2   22401   22416   22437       2   22398   22380
   22401       2   22398   22413   22434       2   22389   22410   22422       2
   22386   22368   22389       2   22386   22404   22422       2   22380   22398
   22413       2   22380   22401   22416       2   22377   22398   22380       2
   22377   22398   22413       2   22374   22362   22377       2   22374   22389
   22410       2   22368   22386   22404       2   22368   22389   22374       2
   22368   22389   22410       2   22365   22380   22398       2   22365   22380
   22401       2   22362   22356   22365       2   22362   22374   22389       2
   22362   22377   22398       2   22359   22356   22362       2   22359   22356
   22365       2   22359   22368   22386       2   22359   22368   22389       2
   22356   22359   22368       2   22356   22362   22374       2   22356   22362
   22377       2   22356   22365   22380       2   22551   22560   22554       2
   22545   22554   22560       2   22542   22524   22545       2   22542   22551
   22560       2   22524   22542   22551       2   22524   22545   22554       2
   22521   22542   22524       2   22521   22542   22551       2   22512   22530
   22518       2   22509   22524   22542       2   22509   22524   22545       2
   22506   22488   22509       2   22506   22521   22542       2   22497   22518
   22530       2   22494   22476   22497       2   22494   22512   22530       2
   22488   22506   22521       2   22488   22509   22524       2   22485   22506
   22488       2   22485   22506   22521       2   22482   22470   22485       2
   22482   22497   22518       2   22476   22494   22512       2   22476   22497
   22482       2   22476   22497   22518       2   22473   22488   22506       2
   22473   22488   22509       2   22470   22464   22473       2   22470   22482
   22497       2   22470   22485   22506       2   22467   22464   22470       2
   22467   22464   22473       2   22467   22476   22494       2   22467   22476
   22497       2   22464   22467   22476       2   22464   22470   22482       2
   22464   22470   22485       2   22464   22473   22488       2   22659   22668
   22662       2   22653   22662   22668       2   22650   22632   22653       2
   22650   22659   22668       2   22632   22650   22659       2   22632   22653
   22662       2   22629   22650   22632       2   22629   22650   22659       2
   22620   22638   22626       2   22617   22632   22650       2   22617   22632
   22653       2   22614   22596   22617       2   22614   22629   22650       2
   22605   22626   22638       2   22602   22584   22605       2   22602   22620
   22638       2   22596   22614   22629       2   22596   22617   22632       2
   22593   22614   22596       2   22593   22614   22629       2   22590   22578
   22593       2   22590   22605   22626       2   22584   22602   22620       2
   22584   22605   22590       2   22584   22605   22626       2   22581   22596
   22614       2   22581   22596   22617       2   22578   22572   22581       2
   22578   22590   22605       2   22578   22593   22614       2   22575   22572
   22578       2   22575   22572   22581       2   22575   22584   22602       2
   22575   22584   22605       2   22572   22575   22584       2   22572   22578
   22590       2   22572   22578   22593       2   22572   22581   22596       2
   22767   22776   22770       2   22761   22770   22776       2   22758   22740
   22761       2   22758   22767   22776       2   22740   22758   22767       2
   22740   22761   22770       2   22737   22758   22740       2   22737   22758
   22767       2   22728   22746   22734       2   22725   22740   22758       2
   22725   22740   22761       2   22722   22704   22725       2   22722   22737
   22758       2   22713   22734   22746       2   22710   22692   22713       2
   22710   22728   22746       2   22704   22722   22737       2   22704   22725
   22740       2   22701   22722   22704       2   22701   22722   22737       2
   22698   22686   22701       2   22698   22713   22734       2   22692   22710
   22728       2   22692   22713   22698       2   22692   22713   22734       2
   22689   22704   22722       2   22689   22704   22725       2   22686   22680
   22689       2   22686   22698   22713       2   22686   22701   22722       2
   22683   22680   22686       2   22683   22680   22689       2   22683   22692
   22710       2   22683   22692   22713       2   22680   22683   22692       2
   22680   22686   22698       2   22680   22686   22701       2   22680   22689
   22704       2   22875   22884   22878       2   22869   22878   22884       2
   22866   22848   22869       2   22866   22875   22884       2   22848   22866
   22875       2   22848   22869   22878       2   22845   22866   22848       2
   22845   22866   22875       2   22836   22854   22842       2   22833   22848
   22866       2   22833   22848   22869       2   22830   22812   22833       2
   22830   22845   22866       2   22821   22842   22854       2   22818   22800
   22821       2   22818   22836   22854       2   22812   22830   22845       2
   22812   22833   22848       2   22809   22830   22812       2   22809   22830
   22845       2   22806   22794   22809       2   22806   22821   22842       2
   22800   22818   22836       2   22800   22821   22806       2   22800   22821
   22842       2   22797   22812   22830       2   22797   22812   22833       2
   22794   22788   22797       2   22794   22806   22821       2   22794   22809
   22830       2   22791   22788   22794       2   22791   22788   22797       2
   22791   22800   22818       2   22791   22800   22821       2   22788   22791
   22800       2   22788   22794   22806       2   22788   22794   22809       2
   22788   22797   22812       2   22983   22992   22986       2   22977   22986
   22992       2   22974   22956   22977       2   22974   22983   22992       2
   22956   22974   22983       2   22956   22977   22986       2   22953   22974
   22956       2   22953   22974   22983       2   22944   22962   22950       2
   22941   22956   22974       2   22941   22956   22977       2   22938   22920
   22941       2   22938   22953   22974       2   22929   22950   22962       2
   22926   22908   22929       2   22926   22944   22962       2   22920   22938
   22953       2   22920   22941   22956       2   22917   22938   22920       2
   22917   22938   22953       2   22914   22902   22917       2   22914   22929
   22950       2   22908   22926   22944       2   22908   22929   22914       2
   22908   22929   22950       2   22905   22920   22938       2   22905   22920
   22941       2   22902   22896   22905       2   22902   22914   22929       2
   22902   22917   22938       2   22899   22896   22902       2   22899   22896
   22905       2   22899   22908   22926       2   22899   22908   22929       2
   22896   22899   22908       2   22896   22902   22914       2   22896   22902
   22917       2   22896   22905   22920       2   23091   23100   23094       2
   23085   23094   23100       2   23082   23064   23085       2   23082   23091
   23100       2   23064   23082   23091       2   23064   23085   23094       2
   23061   23082   23064       2   23061   23082   23091       2   23052   23070
   23058       2   23049   23064   23082       2   23049   23064   23085       2
   23046   23028   23049       2   23046   23061   23082       2   23037   23058
   23070       2   23034   23016   23037       2   23034   23052   23070       2
   23028   23046   23061       2   23028   23049   23064       2   23025   23046
   23028       2   23025   23046   23061       2   23022   23010   23025       2
   23022   23037   23058       2   23016   23034   23052       2   23016   23037
   23022       2   23016   23037   23058       2   23013   23028   23046       2
   23013   23028   23049       2   23010   23004   23013       2   23010   23022
   23037       2   23010   23025   23046       2   23007   23004   23010       2
   23007   23004   23013       2   23007   23016   23034       2   23007   23016
   23037       2   23004   23007   23016       2   23004   23010   23022       2
   23004   23010   23025       2   23004   23013   23028       2   23199   23208
   23202       2   23193   23202   23208       2   23190   23172   23193       2
   23190   23199   23208       2   23172   23190   23199       2   23172   23193
   23202       2   23169   23190   23172       2   23169   23190   23199       2
   23160   23178   23166       2   23157   23172   23190       2   23157   23172
   23193       2   23154   23136   23157       2   23154   23169   23190       2
   23145   23166   23178       2   23142   23124   23145       2   23142   23160
   23178       2   23136   23154   23169       2   23136   23157   23172       2
   23133   23154   23136       2   23133   23154   23169       2   23130   23118
   23133       2   23130   23145   23166       2   23124   23142   23160       2
   23124   23145   23130       2   23124   23145   23166       2   23121   23136
   23154       2   23121   23136   23157       2   23118   23112   23121       2
   23118   23130   23145       2   23118   23133   23154       2   23115   23112
   23118       2   23115   23112   23121       2   23115   23124   23142       2
   23115   23124   23145       2   23112   23115   23124       2   23112   23118
   23130       2   23112   23118   23133       2   23112   23121   23136       2
   23307   23316   23310       2   23301   23310   23316       2   23298   23280
   23301       2   23298   23307   23316       2   23280   23298   23307       2
   23280   23301   23310       2   23277   23298   23280       2   23277   23298
   23307       2   23268   23286   23274       2   23265   23280   23298       2
   23265   23280   23301       2   23262   23244   23265       2   23262   23277
   23298       2   23253   23274   23286       2   23250   23232   23253       2
   23250   23268   23286       2   23244   23262   23277       2   23244   23265
   23280       2   23241   23262   23244       2   23241   23262   23277       2
   23238   23226   23241       2   23238   23253   23274       2   23232   23250
   23268       2   23232   23253   23238       2   23232   23253   23274       2
   23229   23244   23262       2   23229   23244   23265       2   23226   23220
   23229       2   23226   23238   23253       2   23226   23241   23262       2
   23223   23220   23226       2   23223   23220   23229       2   23223   23232
   23250       2   23223   23232   23253       2   23220   23223   23232       2
   23220   23226   23238       2   23220   23226   23241       2   23220   23229
   23244       2   23415   23424   23418       2   23409   23418   23424       2
   23406   23388   23409       2   23406   23415   23424       2   23388   23406
   23415       2   23388   23409   23418       2   23385   23406   23388       2
   23385   23406   23415       2   23376   23394   23382       2   23373   23388
   23406       2   23373   23388   23409       2   23370   23352   23373       2
   23370   23385   23406       2   23361   23382   23394       2   23358   23340
   23361       2   23358   23376   23394       2   23352   23370   23385       2
   23352   23373   23388       2   23349   23370   23352       2   23349   23370
   23385       2   23346   23334   23349       2   23346   23361   23382       2
   23340   23358   23376       2   23340   23361   23346       2   23340   23361
   23382       2   23337   23352   23370       2   23337   23352   23373       2
   23334   23328   23337       2   23334   23346   23361       2   23334   23349
   23370       2   23331   23328   23334       2   23331   23328   23337       2
   23331   23340   23358       2   23331   23340   23361       2   23328   23331
   23340       2   23328   23334   23346       2   23328   23334   23349       2
   23328   23337   23352       2   23523   23532   23526       2   23517   23526
   23532       2   23514   23496   23517       2   23514   23523   23532       2
   23496   23514   23523       2   23496   23517   23526       2   23493   23514
   23496       2   23493   23514   23523       2   23484   23502   23490       2
   23481   23496   23514       2   23481   23496   23517       2   23478   23460
   23481       2   23478   23493   23514       2   23469   23490   23502       2
   23466   23448   23469       2   23466   23484   23502       2   23460   23478
   23493       2   23460   23481   23496       2   23457   23478   23460       2
   23457   23478   23493       2   23454   23442   23457       2   23454   23469
   23490       2   23448   23466   23484       2   23448   23469   23454       2
   23448   23469   23490       2   23445   23460   23478       2   23445   23460
   23481       2   23442   23436   23445       2   23442   23454   23469       2
   23442   23457   23478       2   23439   23436   23442       2   23439   23436
   23445       2   23439   23448   23466       2   23439   23448   23469       2
   23436   23439   23448       2   23436   23442   23454       2   23436   23442
   23457       2   23436   23445   23460       2   23631   23640   23634       2
   23625   23634   23640       2   23622   23604   23625       2   23622   23631
   23640       2   23604   23622   23631       2   23604   23625   23634       2
   23601   23622   23604       2   23601   23622   23631       2   23592   23610
   23598       2   23589   23604   23622       2   23589   23604   23625       2
   23586   23568   23589       2   23586   23601   23622       2   23577   23598
   23610       2   23574   23556   23577       2   23574   23592   23610       2
   23568   23586   23601       2   23568   23589   23604       2   23565   23586
   23568       2   23565   23586   23601       2   23562   23550   23565       2
   23562   23577   23598       2   23556   23574   23592       2   23556   23577
   23562       2   23556   23577   23598       2   23553   23568   23586       2
   23553   23568   23589       2   23550   23544   23553       2   23550   23562
   23577       2   23550   23565   23586       2   23547   23544   23550       2
   23547   23544   23553       2   23547   23556   23574       2   23547   23556
   23577       2   23544   23547   23556       2   23544   23550   23562       2
   23544   23550   23565       2   23544   23553   23568       2   23739   23748
   23742       2   23733   23742   23748       2   23730   23712   23733       2
   23730   23739   23748       2   23712   23730   23739       2   23712   23733
   23742       2   23709   23730   23712       2   23709   23730   23739       2
   23700   23718   23706       2   23697   23712   23730       2   23697   23712
   23733       2   23694   23676   23697       2   23694   23709   23730       2
   23685   23706   23718       2   23682   23664   23685       2   23682   23700
   23718       2   23676   23694   23709       2   23676   23697   23712       2
   23673   23694   23676       2   23673   23694   23709       2   23670   23658
   23673       2   23670   23685   23706       2   23664   23682   23700       2
   23664   23685   23670       2   23664   23685   23706       2   23661   23676
   23694       2   23661   23676   23697       2   23658   23652   23661       2
   23658   23670   23685       2   23658   23673   23694       2   23655   23652
   23658       2   23655   23652   23661       2   23655   23664   23682       2
   23655   23664   23685       2   23652   23655   23664       2   23652   23658
   23670       2   23652   23658   23673       2   23652   23661   23676       2
   23847   23856   23850       2   23841   23850   23856       2   23838   23820
   23841       2   23838   23847   23856       2   23820   23838   23847       2
   23820   23841   23850       2   23817   23838   23820       2   23817   23838
   23847       2   23808   23826   23814       2   23805   23820   23838       2
   23805   23820   23841       2   23802   23784   23805       2   23802   23817
   23838       2   23793   23814   23826       2   23790   23772   23793       2
   23790   23808   23826       2   23784   23802   23817       2   23784   23805
   23820       2   23781   23802   23784       2   23781   23802   23817       2
   23778   23766   23781       2   23778   23793   23814       2   23772   23790
   23808       2   23772   23793   23778       2   23772   23793   23814       2
   23769   23784   23802       2   23769   23784   23805       2   23766   23760
   23769       2   23766   23778   23793       2   23766   23781   23802       2
   23763   23760   23766       2   23763   23760   23769       2   23763   23772
   23790       2   23763   23772   23793       2   23760   23763   23772       2
   23760   23766   23778       2   23760   23766   23781       2   23760   23769
   23784       2   23955   23964   23958       2   23949   23958   23964       2
   23946   23928   23949       2   23946   23955   23964       2   23928   23946
   23955       2   23928   23949   23958       2   23925   23946   23928       2
   23925   23946   23955       2   23916   23934   23922       2   23913   23928
   23946       2   23913   23928   23949       2   23910   23892   23913       2
   23910   23925   23946       2   23901   23922   23934       2   23898   23880
   23901       2   23898   23916   23934       2   23892   23910   23925       2
   23892   23913   23928       2   23889   23910   23892       2   23889   23910
   23925       2   23886   23874   23889       2   23886   23901   23922       2
   23880   23898   23916       2   23880   23901   23886       2   23880   23901
   23922       2   23877   23892   23910       2   23877   23892   23913       2
   23874   23868   23877       2   23874   23886   23901       2   23874   23889
   23910       2   23871   23868   23874       2   23871   23868   23877       2
   23871   23880   23898       2   23871   23880   23901       2   23868   23871
   23880       2   23868   23874   23886       2   23868   23874   23889       2
   23868   23877   23892       2   24063   24072   24066       2   24057   24066
   24072       2   24054   24036   24057       2   24054   24063   24072       2
   24036   24054   24063       2   24036   24057   24066       2   24033   24054
   24036       2   24033   24054   24063       2   24024   24042   24030       2
   24021   24036   24054       2   24021   24036   24057       2   24018   24000
   24021       2   24018   24033   24054       2   24009   24030   24042       2
   24006   23988   24009       2   24006   24024   24042       2   24000   24018
   24033       2   24000   24021   24036       2   23997   24018   24000       2
   23997   24018   24033       2   23994   23982   23997       2   23994   24009
   24030       2   23988   24006   24024       2   23988   24009   23994       2
   23988   24009   24030       2   23985   24000   24018       2   23985   24000
   24021       2   23982   23976   23985       2   23982   23994   24009       2
   23982   23997   24018       2   23979   23976   23982       2   23979   23976
   23985       2   23979   23988   24006       2   23979   23988   24009       2
   23976   23979   23988       2   23976   23982   23994       2   23976   23982
   23997       2   23976   23985   24000       2   24171   24180   24174       2
   24165   24174   24180       2   24162   24144   24165       2   24162   24171
   24180       2   24144   24162   24171       2   24144   24165   24174       2
   24141   24162   24144       2   24141   24162   24171       2   24132   24150
   24138       2   24129   24144   24162       2   24129   24144   24165       2
   24126   24108   24129       2   24126   24141   24162       2   24117   24138
   24150       2   24114   24096   24117       2   24114   24132   24150       2
   24108   24126   24141       2   24108   24129   24144       2   24105   24126
   24108       2   24105   24126   24141       2   24102   24090   24105       2
   24102   24117   24138       2   24096   24114   24132       2   24096   24117
   24102       2   24096   24117   24138       2   24093   24108   24126       2
   24093   24108   24129       2   24090   24084   24093       2   24090   24102
   24117       2   24090   24105   24126       2   24087   24084   24090       2
   24087   24084   24093       2   24087   24096   24114       2   24087   24096
   24117       2   24084   24087   24096       2   24084   24090   24102       2
   24084   24090   24105       2   24084   24093   24108       2   24279   24288
   24282       2   24273   24282   24288       2   24270   24252   24273       2
   24270   24279   24288       2   24252   24270   24279       2   24252   24273
   24282       2   24249   24270   24252       2   24249   24270   24279       2
   24240   24258   24246       2   24237   24252   24270       2   24237   24252
   24273       2   24234   24216   24237       2   24234   24249   24270       2
   24225   24246   24258       2   24222   24204   24225       2   24222   24240
   24258       2   24216   24234   24249       2   24216   24237   24252       2
   24213   24234   24216       2   24213   24234   24249       2   24210   24198
   24213       2   24210   24225   24246       2   24204   24222   24240       2
   24204   24225   24210       2   24204   24225   24246       2   24201   24216
   24234       2   24201   24216   24237       2   24198   24192   24201       2
   24198   24210   24225       2   24198   24213   24234       2   24195   24192
   24198       2   24195   24192   24201       2   24195   24204   24222       2
   24195   24204   24225       2   24192   24195   24204       2   24192   24198
   24210       2   24192   24198   24213       2   24192   24201   24216       2
   24387   24396   24390       2   24381   24390   24396       2   24378   24360
   24381       2   24378   24387   24396       2   24360   24378   24387       2
   24360   24381   24390       2   24357   24378   24360       2   24357   24378
   24387       2   24348   24366   24354       2   24345   24360   24378       2
   24345   24360   24381       2   24342   24324   24345       2   24342   24357
   24378       2   24333   24354   24366       2   24330   24312   24333       2
   24330   24348   24366       2   24324   24342   24357       2   24324   24345
   24360       2   24321   24342   24324       2   24321   24342   24357       2
   24318   24306   24321       2   24318   24333   24354       2   24312   24330
   24348       2   24312   24333   24318       2   24312   24333   24354       2
   24309   24324   24342       2   24309   24324   24345       2   24306   24300
   24309       2   24306   24318   24333       2   24306   24321   24342       2
   24303   24300   24306       2   24303   24300   24309       2   24303   24312
   24330       2   24303   24312   24333       2   24300   24303   24312       2
   24300   24306   24318       2   24300   24306   24321       2   24300   24309
   24324       2   24495   24504   24498       2   24489   24498   24504       2
   24486   24468   24489       2   24486   24495   24504       2   24468   24486
   24495       2   24468   24489   24498       2   24465   24486   24468       2
   24465   24486   24495       2   24456   24474   24462       2   24453   24468
   24486       2   24453   24468   24489       2   24450   24432   24453       2
   24450   24465   24486       2   24441   24462   24474       2   24438   24420
   24441       2   24438   24456   24474       2   24432   24450   24465       2
   24432   24453   24468       2   24429   24450   24432       2   24429   24450
   24465       2   24426   24414   24429       2   24426   24441   24462       2
   24420   24438   24456       2   24420   24441   24426       2   24420   24441
   24462       2   24417   24432   24450       2   24417   24432   24453       2
   24414   24408   24417       2   24414   24426   24441       2   24414   24429
   24450       2   24411   24408   24414       2   24411   24408   24417       2
   24411   24420   24438       2   24411   24420   24441       2   24408   24411
   24420       2   24408   24414   24426       2   24408   24414   24429       2
   24408   24417   24432       2   24603   24612   24606       2   24597   24606
   24612       2   24594   24576   24597       2   24594   24603   24612       2
   24576   24594   24603       2   24576   24597   24606       2   24573   24594
   24576       2   24573   24594   24603       2   24564   24582   24570       2
   24561   24576   24594       2   24561   24576   24597       2   24558   24540
   24561       2   24558   24573   24594       2   24549   24570   24582       2
   24546   24528   24549       2   24546   24564   24582       2   24540   24558
   24573       2   24540   24561   24576       2   24537   24558   24540       2
   24537   24558   24573       2   24534   24522   24537       2   24534   24549
   24570       2   24528   24546   24564       2   24528   24549   24534       2
   24528   24549   24570       2   24525   24540   24558       2   24525   24540
   24561       2   24522   24516   24525       2   24522   24534   24549       2
   24522   24537   24558       2   24519   24516   24522       2   24519   24516
   24525       2   24519   24528   24546       2   24519   24528   24549       2
   24516   24519   24528       2   24516   24522   24534       2   24516   24522
   24537       2   24516   24525   24540       2   24711   24720   24714       2
   24705   24714   24720       2   24702   24684   24705       2   24702   24711
   24720       2   24684   24702   24711       2   24684   24705   24714       2
   24681   24702   24684       2   24681   24702   24711       2   24672   24690
   24678       2   24669   24684   24702       2   24669   24684   24705       2
   24666   24648   24669       2   24666   24681   24702       2   24657   24678
   24690       2   24654   24636   24657       2   24654   24672   24690       2
   24648   24666   24681       2   24648   24669   24684       2   24645   24666
   24648       2   24645   24666   24681       2   24642   24630   24645       2
   24642   24657   24678       2   24636   24654   24672       2   24636   24657
   24642       2   24636   24657   24678       2   24633   24648   24666       2
   24633   24648   24669       2   24630   24624   24633       2   24630   24642
   24657       2   24630   24645   24666       2   24627   24624   24630       2
   24627   24624   24633       2   24627   24636   24654       2   24627   24636
   24657       2   24624   24627   24636       2   24624   24630   24642       2
   24624   24630   24645       2   24624   24633   24648       2   24819   24828
   24822       2   24813   24822   24828       2   24810   24792   24813       2
   24810   24819   24828       2   24792   24810   24819       2   24792   24813
   24822       2   24789   24810   24792       2   24789   24810   24819       2
   24780   24798   24786       2   24777   24792   24810       2   24777   24792
   24813       2   24774   24756   24777       2   24774   24789   24810       2
   24765   24786   24798       2   24762   24744   24765       2   24762   24780
   24798       2   24756   24774   24789       2   24756   24777   24792       2
   24753   24774   24756       2   24753   24774   24789       2   24750   24738
   24753       2   24750   24765   24786       2   24744   24762   24780       2
   24744   24765   24750       2   24744   24765   24786       2   24741   24756
   24774       2   24741   24756   24777       2   24738   24732   24741       2
   24738   24750   24765       2   24738   24753   24774       2   24735   24732
   24738       2   24735   24732   24741       2   24735   24744   24762       2
   24735   24744   24765       2   24732   24735   24744       2   24732   24738
   24750       2   24732   24738   24753       2   24732   24741   24756       2
   24927   24936   24930       2   24921   24930   24936       2   24918   24900
   24921       2   24918   24927   24936       2   24900   24918   24927       2
   24900   24921   24930       2   24897   24918   24900       2   24897   24918
   24927       2   24888   24906   24894       2   24885   24900   24918       2
   24885   24900   24921       2   24882   24864   24885       2   24882   24897
   24918       2   24873   24894   24906       2   24870   24852   24873       2
   24870   24888   24906       2   24864   24882   24897       2   24864   24885
   24900       2   24861   24882   24864       2   24861   24882   24897       2
   24858   24846   24861       2   24858   24873   24894       2   24852   24870
   24888       2   24852   24873   24858       2   24852   24873   24894       2
   24849   24864   24882       2   24849   24864   24885       2   24846   24840
   24849       2   24846   24858   24873       2   24846   24861   24882       2
   24843   24840   24846       2   24843   24840   24849       2   24843   24852
   24870       2   24843   24852   24873       2   24840   24843   24852       2
   24840   24846   24858       2   24840   24846   24861       2   24840   24849
   24864       2   25035   25044   25038       2   25029   25038   25044       2
   25026   25008   25029       2   25026   25035   25044       2   25008   25026
   25035       2   25008   25029   25038       2   25005   25026   25008       2
   25005   25026   25035       2   24996   25014   25002       2   24993   25008
   25026       2   24993   25008   25029       2   24990   24972   24993       2
   24990   25005   25026       2   24981   25002   25014       2   24978   24960
   24981       2   24978   24996   25014       2   24972   24990   25005       2
   24972   24993   25008       2   24969   24990   24972       2   24969   24990
   25005       2   24966   24954   24969       2   24966   24981   25002       2
   24960   24978   24996       2   24960   24981   24966       2   24960   24981
   25002       2   24957   24972   24990       2   24957   24972   24993       2
   24954   24948   24957       2   24954   24966   24981       2   24954   24969
   24990       2   24951   24948   24954       2   24951   24948   24957       2
   24951   24960   24978       2   24951   24960   24981       2   24948   24951
   24960       2   24948   24954   24966       2   24948   24954   24969       2
   24948   24957   24972       2   25143   25152   25146       2   25137   25146
   25152       2   25134   25116   25137       2   25134   25143   25152       2
   25116   25134   25143       2   25116   25137   25146       2   25113   25134
   25116       2   25113   25134   25143       2   25104   25122   25110       2
   25101   25116   25134       2   25101   25116   25137       2   25098   25080
   25101       2   25098   25113   25134       2   25089   25110   25122       2
   25086   25068   25089       2   25086   25104   25122       2   25080   25098
   25113       2   25080   25101   25116       2   25077   25098   25080       2
   25077   25098   25113       2   25074   25062   25077       2   25074   25089
   25110       2   25068   25086   25104       2   25068   25089   25074       2
   25068   25089   25110       2   25065   25080   25098       2   25065   25080
   25101       2   25062   25056   25065       2   25062   25074   25089       2
   25062   25077   25098       2   25059   25056   25062       2   25059   25056
   25065       2   25059   25068   25086       2   25059   25068   25089       2
   25056   25059   25068       2   25056   25062   25074       2   25056   25062
   25077       2   25056   25065   25080       2   25251   25260   25254       2
   25245   25254   25260       2   25242   25224   25245       2   25242   25251
   25260       2   25224   25242   25251       2   25224   25245   25254       2
   25221   25242   25224       2   25221   25242   25251       2   25212   25230
   25218       2   25209   25224   25242       2   25209   25224   25245       2
   25206   25188   25209       2   25206   25221   25242       2   25197   25218
   25230       2   25194   25176   25197       2   25194   25212   25230       2
   25188   25206   25221       2   25188   25209   25224       2   25185   25206
   25188       2   25185   25206   25221       2   25182   25170   25185       2
   25182   25197   25218       2   25176   25194   25212       2   25176   25197
   25182       2   25176   25197   25218       2   25173   25188   25206       2
   25173   25188   25209       2   25170   25164   25173       2   25170   25182
   25197       2   25170   25185   25206       2   25167   25164   25170       2
   25167   25164   25173       2   25167   25176   25194       2   25167   25176
   25197       2   25164   25167   25176       2   25164   25170   25182       2
   25164   25170   25185       2   25164   25173   25188       2   25359   25368
   25362       2   25353   25362   25368       2   25350   25332   25353       2
   25350   25359   25368       2   25332   25350   25359       2   25332   25353
   25362       2   25329   25350   25332       2   25329   25350   25359       2
   25320   25338   25326       2   25317   25332   25350       2   25317   25332
   25353       2   25314   25296   25317       2   25314   25329   25350       2
   25305   25326   25338       2   25302   25284   25305       2   25302   25320
   25338       2   25296   25314   25329       2   25296   25317   25332       2
   25293   25314   25296       2   25293   25314   25329       2   25290   25278
   25293       2   25290   25305   25326       2   25284   25302   25320       2
   25284   25305   25290       2   25284   25305   25326       2   25281   25296
   25314       2   25281   25296   25317       2   25278   25272   25281       2
   25278   25290   25305       2   25278   25293   25314       2   25275   25272
   25278       2   25275   25272   25281       2   25275   25284   25302       2
   25275   25284   25305       2   25272   25275   25284       2   25272   25278
   25290       2   25272   25278   25293       2   25272   25281   25296       2
   25467   25476   25470       2   25461   25470   25476       2   25458   25440
   25461       2   25458   25467   25476       2   25440   25458   25467       2
   25440   25461   25470       2   25437   25458   25440       2   25437   25458
   25467       2   25428   25446   25434       2   25425   25440   25458       2
   25425   25440   25461       2   25422   25404   25425       2   25422   25437
   25458       2   25413   25434   25446       2   25410   25392   25413       2
   25410   25428   25446       2   25404   25422   25437       2   25404   25425
   25440       2   25401   25422   25404       2   25401   25422   25437       2
   25398   25386   25401       2   25398   25413   25434       2   25392   25410
   25428       2   25392   25413   25398       2   25392   25413   25434       2
   25389   25404   25422       2   25389   25404   25425       2   25386   25380
   25389       2   25386   25398   25413       2   25386   25401   25422       2
   25383   25380   25386       2   25383   25380   25389       2   25383   25392
   25410       2   25383   25392   25413       2   25380   25383   25392       2
   25380   25386   25398       2   25380   25386   25401       2   25380   25389
   25404       2   25575   25584   25578       2   25569   25578   25584       2
   25566   25548   25569       2   25566   25575   25584       2   25548   25566
   25575       2   25548   25569   25578       2   25545   25566   25548       2
   25545   25566   25575       2   25536   25554   25542       2   25533   25548
   25566       2   25533   25548   25569       2   25530   25512   25533       2
   25530   25545   25566       2   25521   25542   25554       2   25518   25500
   25521       2   25518   25536   25554       2   25512   25530   25545       2
   25512   25533   25548       2   25509   25530   25512       2   25509   25530
   25545       2   25506   25494   25509       2   25506   25521   25542       2
   25500   25518   25536       2   25500   25521   25506       2   25500   25521
   25542       2   25497   25512   25530       2   25497   25512   25533       2
   25494   25488   25497       2   25494   25506   25521       2   25494   25509
   25530       2   25491   25488   25494       2   25491   25488   25497       2
   25491   25500   25518       2   25491   25500   25521       2   25488   25491
   25500       2   25488   25494   25506       2   25488   25494   25509       2
   25488   25497   25512       2   25683   25692   25686       2   25677   25686
   25692       2   25674   25656   25677       2   25674   25683   25692       2
   25656   25674   25683       2   25656   25677   25686       2   25653   25674
   25656       2   25653   25674   25683       2   25644   25662   25650       2
   25641   25656   25674       2   25641   25656   25677       2   25638   25620
   25641       2   25638   25653   25674       2   25629   25650   25662       2
   25626   25608   25629       2   25626   25644   25662       2   25620   25638
   25653       2   25620   25641   25656       2   25617   25638   25620       2
   25617   25638   25653       2   25614   25602   25617       2   25614   25629
   25650       2   25608   25626   25644       2   25608   25629   25614       2
   25608   25629   25650       2   25605   25620   25638       2   25605   25620
   25641       2   25602   25596   25605       2   25602   25614   25629       2
   25602   25617   25638       2   25599   25596   25602       2   25599   25596
   25605       2   25599   25608   25626       2   25599   25608   25629       2
   25596   25599   25608       2   25596   25602   25614       2   25596   25602
   25617       2   25596   25605   25620       2   25791   25800   25794       2
   25785   25794   25800       2   25782   25764   25785       2   25782   25791
   25800       2   25764   25782   25791       2   25764   25785   25794       2
   25761   25782   25764       2   25761   25782   25791       2   25752   25770
   25758       2   25749   25764   25782       2   25749   25764   25785       2
   25746   25728   25749       2   25746   25761   25782       2   25737   25758
   25770       2   25734   25716   25737       2   25734   25752   25770       2
   25728   25746   25761       2   25728   25749   25764       2   25725   25746
   25728       2   25725   25746   25761       2   25722   25710   25725       2
   25722   25737   25758       2   25716   25734   25752       2   25716   25737
   25722       2   25716   25737   25758       2   25713   25728   25746       2
   25713   25728   25749       2   25710   25704   25713       2   25710   25722
   25737       2   25710   25725   25746       2   25707   25704   25710       2
   25707   25704   25713       2   25707   25716   25734       2   25707   25716
   25737       2   25704   25707   25716       2   25704   25710   25722       2
   25704   25710   25725       2   25704   25713   25728       2   25899   25908
   25902       2   25893   25902   25908       2   25890   25872   25893       2
   25890   25899   25908       2   25872   25890   25899       2   25872   25893
   25902       2   25869   25890   25872       2   25869   25890   25899       2
   25860   25878   25866       2   25857   25872   25890       2   25857   25872
   25893       2   25854   25836   25857       2   25854   25869   25890       2
   25845   25866   25878       2   25842   25824   25845       2   25842   25860
   25878       2   25836   25854   25869       2   25836   25857   25872       2
   25833   25854   25836       2   25833   25854   25869       2   25830   25818
   25833       2   25830   25845   25866       2   25824   25842   25860       2
   25824   25845   25830       2   25824   25845   25866       2   25821   25836
   25854       2   25821   25836   25857       2   25818   25812   25821       2
   25818   25830   25845       2   25818   25833   25854       2   25815   25812
   25818       2   25815   25812   25821       2   25815   25824   25842       2
   25815   25824   25845       2   25812   25815   25824       2   25812   25818
   25830       2   25812   25818   25833       2   25812   25821   25836       2
   26007   26016   26010       2   26001   26010   26016       2   25998   25980
   26001       2   25998   26007   26016       2   25980   25998   26007       2
   25980   26001   26010       2   25977   25998   25980       2   25977   25998
   26007       2   25968   25986   25974       2   25965   25980   25998       2
   25965   25980   26001       2   25962   25944   25965       2   25962   25977
   25998       2   25953   25974   25986       2   25950   25932   25953       2
   25950   25968   25986       2   25944   25962   25977       2   25944   25965
   25980       2   25941   25962   25944       2   25941   25962   25977       2
   25938   25926   25941       2   25938   25953   25974       2   25932   25950
   25968       2   25932   25953   25938       2   25932   25953   25974       2
   25929   25944   25962       2   25929   25944   25965       2   25926   25920
   25929       2   25926   25938   25953       2   25926   25941   25962       2
   25923   25920   25926       2   25923   25920   25929       2   25923   25932
   25950       2   25923   25932   25953       2   25920   25923   25932       2
   25920   25926   25938       2   25920   25926   25941       2   25920   25929
   25944       2   26115   26124   26118       2   26109   26118   26124       2
   26106   26088   26109       2   26106   26115   26124       2   26088   26106
   26115       2   26088   26109   26118       2   26085   26106   26088       2
   26085   26106   26115       2   26076   26094   26082       2   26073   26088
   26106       2   26073   26088   26109       2   26070   26052   26073       2
   26070   26085   26106       2   26061   26082   26094       2   26058   26040
   26061       2   26058   26076   26094       2   26052   26070   26085       2
   26052   26073   26088       2   26049   26070   26052       2   26049   26070
   26085       2   26046   26034   26049       2   26046   26061   26082       2
   26040   26058   26076       2   26040   26061   26046       2   26040   26061
   26082       2   26037   26052   26070       2   26037   26052   26073       2
   26034   26028   26037       2   26034   26046   26061       2   26034   26049
   26070       2   26031   26028   26034       2   26031   26028   26037       2
   26031   26040   26058       2   26031   26040   26061       2   26028   26031
   26040       2   26028   26034   26046       2   26028   26034   26049       2
   26028   26037   26052       2   26223   26232   26226       2   26217   26226
   26232       2   26214   26196   26217       2   26214   26223   26232       2
   26196   26214   26223       2   26196   26217   26226       2   26193   26214
   26196       2   26193   26214   26223       2   26184   26202   26190       2
   26181   26196   26214       2   26181   26196   26217       2   26178   26160
   26181       2   26178   26193   26214       2   26169   26190   26202       2
   26166   26148   26169       2   26166   26184   26202       2   26160   26178
   26193       2   26160   26181   26196       2   26157   26178   26160       2
   26157   26178   26193       2   26154   26142   26157       2   26154   26169
   26190       2   26148   26166   26184       2   26148   26169   26154       2
   26148   26169   26190       2   26145   26160   26178       2   26145   26160
   26181       2   26142   26136   26145       2   26142   26154   26169       2
   26142   26157   26178       2   26139   26136   26142       2   26139   26136
   26145       2   26139   26148   26166       2   26139   26148   26169       2
   26136   26139   26148       2   26136   26142   26154       2   26136   26142
   26157       2   26136   26145   26160       2   26331   26340   26334       2
   26325   26334   26340       2   26322   26304   26325       2   26322   26331
   26340       2   26304   26322   26331       2   26304   26325   26334       2
   26301   26322   26304       2   26301   26322   26331       2   26292   26310
   26298       2   26289   26304   26322       2   26289   26304   26325       2
   26286   26268   26289       2   26286   26301   26322       2   26277   26298
   26310       2   26274   26256   26277       2   26274   26292   26310       2
   26268   26286   26301       2   26268   26289   26304       2   26265   26286
   26268       2   26265   26286   26301       2   26262   26250   26265       2
   26262   26277   26298       2   26256   26274   26292       2   26256   26277
   26262       2   26256   26277   26298       2   26253   26268   26286       2
   26253   26268   26289       2   26250   26244   26253       2   26250   26262
   26277       2   26250   26265   26286       2   26247   26244   26250       2
   26247   26244   26253       2   26247   26256   26274       2   26247   26256
   26277       2   26244   26247   26256       2   26244   26250   26262       2
   26244   26250   26265       2   26244   26253   26268       2   26439   26448
   26442       2   26433   26442   26448       2   26430   26412   26433       2
   26430   26439   26448       2   26412   26430   26439       2   26412   26433
   26442       2   26409   26430   26412       2   26409   26430   26439       2
   26400   26418   26406       2   26397   26412   26430       2   26397   26412
   26433       2   26394   26376   26397       2   26394   26409   26430       2
   26385   26406   26418       2   26382   26364   26385       2   26382   26400
   26418       2   26376   26394   26409       2   26376   26397   26412       2
   26373   26394   26376       2   26373   26394   26409       2   26370   26358
   26373       2   26370   26385   26406       2   26364   26382   26400       2
   26364   26385   26370       2   26364   26385   26406       2   26361   26376
   26394       2   26361   26376   26397       2   26358   26352   26361       2
   26358   26370   26385       2   26358   26373   26394       2   26355   26352
   26358       2   26355   26352   26361       2   26355   26364   26382       2
   26355   26364   26385       2   26352   26355   26364       2   26352   26358
   26370       2   26352   26358   26373       2   26352   26361   26376       2
   26547   26556   26550       2   26541   26550   26556       2   26538   26520
   26541       2   26538   26547   26556       2   26520   26538   26547       2
   26520   26541   26550       2   26517   26538   26520       2   26517   26538
   26547       2   26508   26526   26514       2   26505   26520   26538       2
   26505   26520   26541       2   26502   26484   26505       2   26502   26517
   26538       2   26493   26514   26526       2   26490   26472   26493       2
   26490   26508   26526       2   26484   26502   26517       2   26484   26505
   26520       2   26481   26502   26484       2   26481   26502   26517       2
   26478   26466   26481       2   26478   26493   26514       2   26472   26490
   26508       2   26472   26493   26478       2   26472   26493   26514       2
   26469   26484   26502       2   26469   26484   26505       2   26466   26460
   26469       2   26466   26478   26493       2   26466   26481   26502       2
   26463   26460   26466       2   26463   26460   26469       2   26463   26472
   26490       2   26463   26472   26493       2   26460   26463   26472       2
   26460   26466   26478       2   26460   26466   26481       2   26460   26469
   26484       2   26655   26664   26658       2   26649   26658   26664       2
   26646   26628   26649       2   26646   26655   26664       2   26628   26646
   26655       2   26628   26649   26658       2   26625   26646   26628       2
   26625   26646   26655       2   26616   26634   26622       2   26613   26628
   26646       2   26613   26628   26649       2   26610   26592   26613       2
   26610   26625   26646       2   26601   26622   26634       2   26598   26580
   26601       2   26598   26616   26634       2   26592   26610   26625       2
   26592   26613   26628       2   26589   26610   26592       2   26589   26610
   26625       2   26586   26574   26589       2   26586   26601   26622       2
   26580   26598   26616       2   26580   26601   26586       2   26580   26601
   26622       2   26577   26592   26610       2   26577   26592   26613       2
   26574   26568   26577       2   26574   26586   26601       2   26574   26589
   26610       2   26571   26568   26574       2   26571   26568   26577       2
   26571   26580   26598       2   26571   26580   26601       2   26568   26571
   26580       2   26568   26574   26586       2   26568   26574   26589       2
   26568   26577   26592       2   26763   26772   26766       2   26757   26766
   26772       2   26754   26736   26757       2   26754   26763   26772       2
   26736   26754   26763       2   26736   26757   26766       2   26733   26754
   26736       2   26733   26754   26763       2   26724   26742   26730       2
   26721   26736   26754       2   26721   26736   26757       2   26718   26700
   26721       2   26718   26733   26754       2   26709   26730   26742       2
   26706   26688   26709       2   26706   26724   26742       2   26700   26718
   26733       2   26700   26721   26736       2   26697   26718   26700       2
   26697   26718   26733       2   26694   26682   26697       2   26694   26709
   26730       2   26688   26706   26724       2   26688   26709   26694       2
   26688   26709   26730       2   26685   26700   26718       2   26685   26700
   26721       2   26682   26676   26685       2   26682   26694   26709       2
   26682   26697   26718       2   26679   26676   26682       2   26679   26676
   26685       2   26679   26688   26706       2   26679   26688   26709       2
   26676   26679   26688       2   26676   26682   26694       2   26676   26682
   26697       2   26676   26685   26700       2   26871   26880   26874       2
   26865   26874   26880       2   26862   26844   26865       2   26862   26871
   26880       2   26844   26862   26871       2   26844   26865   26874       2
   26841   26862   26844       2   26841   26862   26871       2   26832   26850
   26838       2   26829   26844   26862       2   26829   26844   26865       2
   26826   26808   26829       2   26826   26841   26862       2   26817   26838
   26850       2   26814   26796   26817       2   26814   26832   26850       2
   26808   26826   26841       2   26808   26829   26844       2   26805   26826
   26808       2   26805   26826   26841       2   26802   26790   26805       2
   26802   26817   26838       2   26796   26814   26832       2   26796   26817
   26802       2   26796   26817   26838       2   26793   26808   26826       2
   26793   26808   26829       2   26790   26784   26793       2   26790   26802
   26817       2   26790   26805   26826       2   26787   26784   26790       2
   26787   26784   26793       2   26787   26796   26814       2   26787   26796
   26817       2   26784   26787   26796       2   26784   26790   26802       2
   26784   26790   26805       2   26784   26793   26808       2   26979   26988
   26982       2   26973   26982   26988       2   26970   26952   26973       2
   26970   26979   26988       2   26952   26970   26979       2   26952   26973
   26982       2   26949   26970   26952       2   26949   26970   26979       2
   26940   26958   26946       2   26937   26952   26970       2   26937   26952
   26973       2   26934   26916   26937       2   26934   26949   26970       2
   26925   26946   26958       2   26922   26904   26925       2   26922   26940
   26958       2   26916   26934   26949       2   26916   26937   26952       2
   26913   26934   26916       2   26913   26934   26949       2   26910   26898
   26913       2   26910   26925   26946       2   26904   26922   26940       2
   26904   26925   26910       2   26904   26925   26946       2   26901   26916
   26934       2   26901   26916   26937       2   26898   26892   26901       2
   26898   26910   26925       2   26898   26913   26934       2   26895   26892
   26898       2   26895   26892   26901       2   26895   26904   26922       2
   26895   26904   26925       2   26892   26895   26904       2   26892   26898
   26910       2   26892   26898   26913       2   26892   26901   26916       2
%FLAG DIHEDRALS_INC_HYDROGEN                                                    
%FORMAT(10I8)                                                                   
     102      90      96     105       1      99      87      96     105       1
      93      81      90      96       1      93      81      90     102       1
      90      96      87      99       1      87      96      90     102       1
      81      90      96     105       1      78      60      81      93       1
      78      87      96     105       1      75      57      78      87       1
      72      54      66      84       1      69      48      66      84       1
      63      45      60      78       1      63      45      60      81       1
      60      78      57      75       1      60      78      87      99       1
      60      81      90     102       1      57      78      87      99       1
      54      66      48      69       1      51      30      48      66       1
      51      30      48      69       1      48      66      54      72       1
      45      60      81      93       1      42      24      45      63       1
      39      21      42      57       1      36      18      33      54       1
      33      12      30      51       1      33      54      66      84       1
      30      48      66      84       1      27       9      24      42       1
      27       9      24      45       1      24      42      21      39       1
      24      42      57      75       1      21       6      18      36       1
      21      42      57      75       1      18       6      21      39       1
      18      33      54      72       1      15       3      12      30       1
      15       3      12      33       1      12      30      48      69       1
      12      33      18      36       1      12      33      54      72       1
       9       0       3      15       1       9      24      45      63       1
       6       0       3      15       1       6       0       9      27       1
       3       0       9      27       1       3      12      30      51       1
       0       6      18      36       1       0       6      21      39       1
     210     198     204     213       1     207     195     204     213       1
     201     189     198     204       1     201     189     198     210       1
     198     204     195     207       1     195     204     198     210       1
     189     198     204     213       1     186     168     189     201       1
     186     195     204     213       1     183     165     186     195       1
     180     162     174     192       1     177     156     174     192       1
     171     153     168     186       1     171     153     168     189       1
     168     186     165     183       1     168     186     195     207       1
     168     189     198     210       1     165     186     195     207       1
     162     174     156     177       1     159     138     156     174       1
     159     138     156     177       1     156     174     162     180       1
     153     168     189     201       1     150     132     153     171       1
     147     129     150     165       1     144     126     141     162       1
     141     120     138     159       1     141     162     174     192       1
     138     156     174     192       1     135     117     132     150       1
     135     117     132     153       1     132     150     129     147       1
     132     150     165     183       1     129     114     126     144       1
     129     150     165     183       1     126     114     129     147       1
     126     141     162     180       1     123     111     120     138       1
     123     111     120     141       1     120     138     156     177       1
     120     141     126     144       1     120     141     162     180       1
     117     108     111     123       1     117     132     153     171       1
     114     108     111     123       1     114     108     117     135       1
     111     108     117     135       1     111     120     138     159       1
     108     114     126     144       1     108     114     129     147       1
     318     306     312     321       1     315     303     312     321       1
     309     297     306     312       1     309     297     306     318       1
     306     312     303     315       1     303     312     306     318       1
     297     306     312     321       1     294     276     297     309       1
     294     303     312     321       1     291     273     294     303       1
     288     270     282     300       1     285     264     282     300       1
     279     261     276     294       1     279     261     276     297       1
     276     294     273     291       1     276     294     303     315       1
     276     297     306     318       1     273     294     303     315       1
     270     282     264     285       1     267     246     264     282       1
     267     246     264     285       1     264     282     270     288       1
     261     276     297     309       1     258     240     261     279       1
     255     237     258     273       1     252     234     249     270       1
     249     228     246     267       1     249     270     282     300       1
     246     264     282     300       1     243     225     240     258       1
     243     225     240     261       1     240     258     237     255       1
     240     258     273     291       1     237     222     234     252       1
     237     258     273     291       1     234     222     237     255       1
     234     249     270     288       1     231     219     228     246       1
     231     219     228     249       1     228     246     264     285       1
     228     249     234     252       1     228     249     270     288       1
     225     216     219     231       1     225     240     261     279       1
     222     216     219     231       1     222     216     225     243       1
     219     216     225     243       1     219     228     246     267       1
     216     222     234     252       1     216     222     237     255       1
     426     414     420     429       1     423     411     420     429       1
     417     405     414     420       1     417     405     414     426       1
     414     420     411     423       1     411     420     414     426       1
     405     414     420     429       1     402     384     405     417       1
     402     411     420     429       1     399     381     402     411       1
     396     378     390     408       1     393     372     390     408       1
     387     369     384     402       1     387     369     384     405       1
     384     402     381     399       1     384     402     411     423       1
     384     405     414     426       1     381     402     411     423       1
     378     390     372     393       1     375     354     372     390       1
     375     354     372     393       1     372     390     378     396       1
     369     384     405     417       1     366     348     369     387       1
     363     345     366     381       1     360     342     357     378       1
     357     336     354     375       1     357     378     390     408       1
     354     372     390     408       1     351     333     348     366       1
     351     333     348     369       1     348     366     345     363       1
     348     366     381     399       1     345     330     342     360       1
     345     366     381     399       1     342     330     345     363       1
     342     357     378     396       1     339     327     336     354       1
     339     327     336     357       1     336     354     372     393       1
     336     357     342     360       1     336     357     378     396       1
     333     324     327     339       1     333     348     369     387       1
     330     324     327     339       1     330     324     333     351       1
     327     324     333     351       1     327     336     354     375       1
     324     330     342     360       1     324     330     345     363       1
     534     522     528     537       1     531     519     528     537       1
     525     513     522     528       1     525     513     522     534       1
     522     528     519     531       1     519     528     522     534       1
     513     522     528     537       1     510     492     513     525       1
     510     519     528     537       1     507     489     510     519       1
     504     486     498     516       1     501     480     498     516       1
     495     477     492     510       1     495     477     492     513       1
     492     510     489     507       1     492     510     519     531       1
     492     513     522     534       1     489     510     519     531       1
     486     498     480     501       1     483     462     480     498       1
     483     462     480     501       1     480     498     486     504       1
     477     492     513     525       1     474     456     477     495       1
     471     453     474     489       1     468     450     465     486       1
     465     444     462     483       1     465     486     498     516       1
     462     480     498     516       1     459     441     456     474       1
     459     441     456     477       1     456     474     453     471       1
     456     474     489     507       1     453     438     450     468       1
     453     474     489     507       1     450     438     453     471       1
     450     465     486     504       1     447     435     444     462       1
     447     435     444     465       1     444     462     480     501       1
     444     465     450     468       1     444     465     486     504       1
     441     432     435     447       1     441     456     477     495       1
     438     432     435     447       1     438     432     441     459       1
     435     432     441     459       1     435     444     462     483       1
     432     438     450     468       1     432     438     453     471       1
     642     630     636     645       1     639     627     636     645       1
     633     621     630     636       1     633     621     630     642       1
     630     636     627     639       1     627     636     630     642       1
     621     630     636     645       1     618     600     621     633       1
     618     627     636     645       1     615     597     618     627       1
     612     594     606     624       1     609     588     606     624       1
     603     585     600     618       1     603     585     600     621       1
     600     618     597     615       1     600     618     627     639       1
     600     621     630     642       1     597     618     627     639       1
     594     606     588     609       1     591     570     588     606       1
     591     570     588     609       1     588     606     594     612       1
     585     600     621     633       1     582     564     585     603       1
     579     561     582     597       1     576     558     573     594       1
     573     552     570     591       1     573     594     606     624       1
     570     588     606     624       1     567     549     564     582       1
     567     549     564     585       1     564     582     561     579       1
     564     582     597     615       1     561     546     558     576       1
     561     582     597     615       1     558     546     561     579       1
     558     573     594     612       1     555     543     552     570       1
     555     543     552     573       1     552     570     588     609       1
     552     573     558     576       1     552     573     594     612       1
     549     540     543     555       1     549     564     585     603       1
     546     540     543     555       1     546     540     549     567       1
     543     540     549     567       1     543     552     570     591       1
     540     546     558     576       1     540     546     561     579       1
     750     738     744     753       1     747     735     744     753       1
     741     729     738     744       1     741     729     738     750       1
     738     744     735     747       1     735     744     738     750       1
     729     738     744     753       1     726     708     729     741       1
     726     735     744     753       1     723     705     726     735       1
     720     702     714     732       1     717     696     714     732       1
     711     693     708     726       1     711     693     708     729       1
     708     726     705     723       1     708     726     735     747       1
     708     729     738     750       1     705     726     735     747       1
     702     714     696     717       1     699     678     696     714       1
     699     678     696     717       1     696     714     702     720       1
     693     708     729     741       1     690     672     693     711       1
     687     669     690     705       1     684     666     681     702       1
     681     660     678     699       1     681     702     714     732       1
     678     696     714     732       1     675     657     672     690       1
     675     657     672     693       1     672     690     669     687       1
     672     690     705     723       1     669     654     666     684       1
     669     690     705     723       1     666     654     669     687       1
     666     681     702     720       1     663     651     660     678       1
     663     651     660     681       1     660     678     696     717       1
     660     681     666     684       1     660     681     702     720       1
     657     648     651     663       1     657     672     693     711       1
     654     648     651     663       1     654     648     657     675       1
     651     648     657     675       1     651     660     678     699       1
     648     654     666     684       1     648     654     669     687       1
     858     846     852     861       1     855     843     852     861       1
     849     837     846     852       1     849     837     846     858       1
     846     852     843     855       1     843     852     846     858       1
     837     846     852     861       1     834     816     837     849       1
     834     843     852     861       1     831     813     834     843       1
     828     810     822     840       1     825     804     822     840       1
     819     801     816     834       1     819     801     816     837       1
     816     834     813     831       1     816     834     843     855       1
     816     837     846     858       1     813     834     843     855       1
     810     822     804     825       1     807     786     804     822       1
     807     786     804     825       1     804     822     810     828       1
     801     816     837     849       1     798     780     801     819       1
     795     777     798     813       1     792     774     789     810       1
     789     768     786     807       1     789     810     822     840       1
     786     804     822     840       1     783     765     780     798       1
     783     765     780     801       1     780     798     777     795       1
     780     798     813     831       1     777     762     774     792       1
     777     798     813     831       1     774     762     777     795       1
     774     789     810     828       1     771     759     768     786       1
     771     759     768     789       1     768     786     804     825       1
     768     789     774     792       1     768     789     810     828       1
     765     756     759     771       1     765     780     801     819       1
     762     756     759     771       1     762     756     765     783       1
     759     756     765     783       1     759     768     786     807       1
     756     762     774     792       1     756     762     777     795       1
     966     954     960     969       1     963     951     960     969       1
     957     945     954     960       1     957     945     954     966       1
     954     960     951     963       1     951     960     954     966       1
     945     954     960     969       1     942     924     945     957       1
     942     951     960     969       1     939     921     942     951       1
     936     918     930     948       1     933     912     930     948       1
     927     909     924     942       1     927     909     924     945       1
     924     942     921     939       1     924     942     951     963       1
     924     945     954     966       1     921     942     951     963       1
     918     930     912     933       1     915     894     912     930       1
     915     894     912     933       1     912     930     918     936       1
     909     924     945     957       1     906     888     909     927       1
     903     885     906     921       1     900     882     897     918       1
     897     876     894     915       1     897     918     930     948       1
     894     912     930     948       1     891     873     888     906       1
     891     873     888     909       1     888     906     885     903       1
     888     906     921     939       1     885     870     882     900       1
     885     906     921     939       1     882     870     885     903       1
     882     897     918     936       1     879     867     876     894       1
     879     867     876     897       1     876     894     912     933       1
     876     897     882     900       1     876     897     918     936       1
     873     864     867     879       1     873     888     909     927       1
     870     864     867     879       1     870     864     873     891       1
     867     864     873     891       1     867     876     894     915       1
     864     870     882     900       1     864     870     885     903       1
    1074    1062    1068    1077       1    1071    1059    1068    1077       1
    1065    1053    1062    1068       1    1065    1053    1062    1074       1
    1062    1068    1059    1071       1    1059    1068    1062    1074       1
    1053    1062    1068    1077       1    1050    1032    1053    1065       1
    1050    1059    1068    1077       1    1047    1029    1050    1059       1
    1044    1026    1038    1056       1    1041    1020    1038    1056       1
    1035    1017    1032    1050       1    1035    1017    1032    1053       1
    1032    1050    1029    1047       1    1032    1050    1059    1071       1
    1032    1053    1062    1074       1    1029    1050    1059    1071       1
    1026    1038    1020    1041       1    1023    1002    1020    1038       1
    1023    1002    1020    1041       1    1020    1038    1026    1044       1
    1017    1032    1053    1065       1    1014     996    1017    1035       1
    1011     993    1014    1029       1    1008     990    1005    1026       1
    1005     984    1002    1023       1    1005    1026    1038    1056       1
    1002    1020    1038    1056       1     999     981     996    1014       1
     999     981     996    1017       1     996    1014     993    1011       1
     996    1014    1029    1047       1     993     978     990    1008       1
     993    1014    1029    1047       1     990     978     993    1011       1
     990    1005    1026    1044       1     987     975     984    1002       1
     987     975     984    1005       1     984    1002    1020    1041       1
     984    1005     990    1008       1     984    1005    1026    1044       1
     981     972     975     987       1     981     996    1017    1035       1
     978     972     975     987       1     978     972     981     999       1
     975     972     981     999       1     975     984    1002    1023       1
     972     978     990    1008       1     972     978     993    1011       1
    1182    1170    1176    1185       1    1179    1167    1176    1185       1
    1173    1161    1170    1176       1    1173    1161    1170    1182       1
    1170    1176    1167    1179       1    1167    1176    1170    1182       1
    1161    1170    1176    1185       1    1158    1140    1161    1173       1
    1158    1167    1176    1185       1    1155    1137    1158    1167       1
    1152    1134    1146    1164       1    1149    1128    1146    1164       1
    1143    1125    1140    1158       1    1143    1125    1140    1161       1
    1140    1158    1137    1155       1    1140    1158    1167    1179       1
    1140    1161    1170    1182       1    1137    1158    1167    1179       1
    1134    1146    1128    1149       1    1131    1110    1128    1146       1
    1131    1110    1128    1149       1    1128    1146    1134    1152       1
    1125    1140    1161    1173       1    1122    1104    1125    1143       1
    1119    1101    1122    1137       1    1116    1098    1113    1134       1
    1113    1092    1110    1131       1    1113    1134    1146    1164       1
    1110    1128    1146    1164       1    1107    1089    1104    1122       1
    1107    1089    1104    1125       1    1104    1122    1101    1119       1
    1104    1122    1137    1155       1    1101    1086    1098    1116       1
    1101    1122    1137    1155       1    1098    1086    1101    1119       1
    1098    1113    1134    1152       1    1095    1083    1092    1110       1
    1095    1083    1092    1113       1    1092    1110    1128    1149       1
    1092    1113    1098    1116       1    1092    1113    1134    1152       1
    1089    1080    1083    1095       1    1089    1104    1125    1143       1
    1086    1080    1083    1095       1    1086    1080    1089    1107       1
    1083    1080    1089    1107       1    1083    1092    1110    1131       1
    1080    1086    1098    1116       1    1080    1086    1101    1119       1
    1290    1278    1284    1293       1    1287    1275    1284    1293       1
    1281    1269    1278    1284       1    1281    1269    1278    1290       1
    1278    1284    1275    1287       1    1275    1284    1278    1290       1
    1269    1278    1284    1293       1    1266    1248    1269    1281       1
    1266    1275    1284    1293       1    1263    1245    1266    1275       1
    1260    1242    1254    1272       1    1257    1236    1254    1272       1
    1251    1233    1248    1266       1    1251    1233    1248    1269       1
    1248    1266    1245    1263       1    1248    1266    1275    1287       1
    1248    1269    1278    1290       1    1245    1266    1275    1287       1
    1242    1254    1236    1257       1    1239    1218    1236    1254       1
    1239    1218    1236    1257       1    1236    1254    1242    1260       1
    1233    1248    1269    1281       1    1230    1212    1233    1251       1
    1227    1209    1230    1245       1    1224    1206    1221    1242       1
    1221    1200    1218    1239       1    1221    1242    1254    1272       1
    1218    1236    1254    1272       1    1215    1197    1212    1230       1
    1215    1197    1212    1233       1    1212    1230    1209    1227       1
    1212    1230    1245    1263       1    1209    1194    1206    1224       1
    1209    1230    1245    1263       1    1206    1194    1209    1227       1
    1206    1221    1242    1260       1    1203    1191    1200    1218       1
    1203    1191    1200    1221       1    1200    1218    1236    1257       1
    1200    1221    1206    1224       1    1200    1221    1242    1260       1
    1197    1188    1191    1203       1    1197    1212    1233    1251       1
    1194    1188    1191    1203       1    1194    1188    1197    1215       1
    1191    1188    1197    1215       1    1191    1200    1218    1239       1
    1188    1194    1206    1224       1    1188    1194    1209    1227       1
    1398    1386    1392    1401       1    1395    1383    1392    1401       1
    1389    1377    1386    1392       1    1389    1377    1386    1398       1
    1386    1392    1383    1395       1    1383    1392    1386    1398       1
    1377    1386    1392    1401       1    1374    1356    1377    1389       1
    1374    1383    1392    1401       1    1371    1353    1374    1383       1
    1368    1350    1362    1380       1    1365    1344    1362    1380       1
    1359    1341    1356    1374       1    1359    1341    1356    1377       1
    1356    1374    1353    1371       1    1356    1374    1383    1395       1
    1356    1377    1386    1398       1    1353    1374    1383    1395       1
    1350    1362    1344    1365       1    1347    1326    1344    1362       1
    1347    1326    1344    1365       1    1344    1362    1350    1368       1
    1341    1356    1377    1389       1    1338    1320    1341    1359       1
    1335    1317    1338    1353       1    1332    1314    1329    1350       1
    1329    1308    1326    1347       1    1329    1350    1362    1380       1
    1326    1344    1362    1380       1    1323    1305    1320    1338       1
    1323    1305    1320    1341       1    1320    1338    1317    1335       1
    1320    1338    1353    1371       1    1317    1302    1314    1332       1
    1317    1338    1353    1371       1    1314    1302    1317    1335       1
    1314    1329    1350    1368       1    1311    1299    1308    1326       1
    1311    1299    1308    1329       1    1308    1326    1344    1365       1
    1308    1329    1314    1332       1    1308    1329    1350    1368       1
    1305    1296    1299    1311       1    1305    1320    1341    1359       1
    1302    1296    1299    1311       1    1302    1296    1305    1323       1
    1299    1296    1305    1323       1    1299    1308    1326    1347       1
    1296    1302    1314    1332       1    1296    1302    1317    1335       1
    1506    1494    1500    1509       1    1503    1491    1500    1509       1
    1497    1485    1494    1500       1    1497    1485    1494    1506       1
    1494    1500    1491    1503       1    1491    1500    1494    1506       1
    1485    1494    1500    1509       1    1482    1464    1485    1497       1
    1482    1491    1500    1509       1    1479    1461    1482    1491       1
    1476    1458    1470    1488       1    1473    1452    1470    1488       1
    1467    1449    1464    1482       1    1467    1449    1464    1485       1
    1464    1482    1461    1479       1    1464    1482    1491    1503       1
    1464    1485    1494    1506       1    1461    1482    1491    1503       1
    1458    1470    1452    1473       1    1455    1434    1452    1470       1
    1455    1434    1452    1473       1    1452    1470    1458    1476       1
    1449    1464    1485    1497       1    1446    1428    1449    1467       1
    1443    1425    1446    1461       1    1440    1422    1437    1458       1
    1437    1416    1434    1455       1    1437    1458    1470    1488       1
    1434    1452    1470    1488       1    1431    1413    1428    1446       1
    1431    1413    1428    1449       1    1428    1446    1425    1443       1
    1428    1446    1461    1479       1    1425    1410    1422    1440       1
    1425    1446    1461    1479       1    1422    1410    1425    1443       1
    1422    1437    1458    1476       1    1419    1407    1416    1434       1
    1419    1407    1416    1437       1    1416    1434    1452    1473       1
    1416    1437    1422    1440       1    1416    1437    1458    1476       1
    1413    1404    1407    1419       1    1413    1428    1449    1467       1
    1410    1404    1407    1419       1    1410    1404    1413    1431       1
    1407    1404    1413    1431       1    1407    1416    1434    1455       1
    1404    1410    1422    1440       1    1404    1410    1425    1443       1
    1614    1602    1608    1617       1    1611    1599    1608    1617       1
    1605    1593    1602    1608       1    1605    1593    1602    1614       1
    1602    1608    1599    1611       1    1599    1608    1602    1614       1
    1593    1602    1608    1617       1    1590    1572    1593    1605       1
    1590    1599    1608    1617       1    1587    1569    1590    1599       1
    1584    1566    1578    1596       1    1581    1560    1578    1596       1
    1575    1557    1572    1590       1    1575    1557    1572    1593       1
    1572    1590    1569    1587       1    1572    1590    1599    1611       1
    1572    1593    1602    1614       1    1569    1590    1599    1611       1
    1566    1578    1560    1581       1    1563    1542    1560    1578       1
    1563    1542    1560    1581       1    1560    1578    1566    1584       1
    1557    1572    1593    1605       1    1554    1536    1557    1575       1
    1551    1533    1554    1569       1    1548    1530    1545    1566       1
    1545    1524    1542    1563       1    1545    1566    1578    1596       1
    1542    1560    1578    1596       1    1539    1521    1536    1554       1
    1539    1521    1536    1557       1    1536    1554    1533    1551       1
    1536    1554    1569    1587       1    1533    1518    1530    1548       1
    1533    1554    1569    1587       1    1530    1518    1533    1551       1
    1530    1545    1566    1584       1    1527    1515    1524    1542       1
    1527    1515    1524    1545       1    1524    1542    1560    1581       1
    1524    1545    1530    1548       1    1524    1545    1566    1584       1
    1521    1512    1515    1527       1    1521    1536    1557    1575       1
    1518    1512    1515    1527       1    1518    1512    1521    1539       1
    1515    1512    1521    1539       1    1515    1524    1542    1563       1
    1512    1518    1530    1548       1    1512    1518    1533    1551       1
    1722    1710    1716    1725       1    1719    1707    1716    1725       1
    1713    1701    1710    1716       1    1713    1701    1710    1722       1
    1710    1716    1707    1719       1    1707    1716    1710    1722       1
    1701    1710    1716    1725       1    1698    1680    1701    1713       1
    1698    1707    1716    1725       1    1695    1677    1698    1707       1
    1692    1674    1686    1704       1    1689    1668    1686    1704       1
    1683    1665    1680    1698       1    1683    1665    1680    1701       1
    1680    1698    1677    1695       1    1680    1698    1707    1719       1
    1680    1701    1710    1722       1    1677    1698    1707    1719       1
    1674    1686    1668    1689       1    1671    1650    1668    1686       1
    1671    1650    1668    1689       1    1668    1686    1674    1692       1
    1665    1680    1701    1713       1    1662    1644    1665    1683       1
    1659    1641    1662    1677       1    1656    1638    1653    1674       1
    1653    1632    1650    1671       1    1653    1674    1686    1704       1
    1650    1668    1686    1704       1    1647    1629    1644    1662       1
    1647    1629    1644    1665       1    1644    1662    1641    1659       1
    1644    1662    1677    1695       1    1641    1626    1638    1656       1
    1641    1662    1677    1695       1    1638    1626    1641    1659       1
    1638    1653    1674    1692       1    1635    1623    1632    1650       1
    1635    1623    1632    1653       1    1632    1650    1668    1689       1
    1632    1653    1638    1656       1    1632    1653    1674    1692       1
    1629    1620    1623    1635       1    1629    1644    1665    1683       1
    1626    1620    1623    1635       1    1626    1620    1629    1647       1
    1623    1620    1629    1647       1    1623    1632    1650    1671       1
    1620    1626    1638    1656       1    1620    1626    1641    1659       1
    1830    1818    1824    1833       1    1827    1815    1824    1833       1
    1821    1809    1818    1824       1    1821    1809    1818    1830       1
    1818    1824    1815    1827       1    1815    1824    1818    1830       1
    1809    1818    1824    1833       1    1806    1788    1809    1821       1
    1806    1815    1824    1833       1    1803    1785    1806    1815       1
    1800    1782    1794    1812       1    1797    1776    1794    1812       1
    1791    1773    1788    1806       1    1791    1773    1788    1809       1
    1788    1806    1785    1803       1    1788    1806    1815    1827       1
    1788    1809    1818    1830       1    1785    1806    1815    1827       1
    1782    1794    1776    1797       1    1779    1758    1776    1794       1
    1779    1758    1776    1797       1    1776    1794    1782    1800       1
    1773    1788    1809    1821       1    1770    1752    1773    1791       1
    1767    1749    1770    1785       1    1764    1746    1761    1782       1
    1761    1740    1758    1779       1    1761    1782    1794    1812       1
    1758    1776    1794    1812       1    1755    1737    1752    1770       1
    1755    1737    1752    1773       1    1752    1770    1749    1767       1
    1752    1770    1785    1803       1    1749    1734    1746    1764       1
    1749    1770    1785    1803       1    1746    1734    1749    1767       1
    1746    1761    1782    1800       1    1743    1731    1740    1758       1
    1743    1731    1740    1761       1    1740    1758    1776    1797       1
    1740    1761    1746    1764       1    1740    1761    1782    1800       1
    1737    1728    1731    1743       1    1737    1752    1773    1791       1
    1734    1728    1731    1743       1    1734    1728    1737    1755       1
    1731    1728    1737    1755       1    1731    1740    1758    1779       1
    1728    1734    1746    1764       1    1728    1734    1749    1767       1
    1938    1926    1932    1941       1    1935    1923    1932    1941       1
    1929    1917    1926    1932       1    1929    1917    1926    1938       1
    1926    1932    1923    1935       1    1923    1932    1926    1938       1
    1917    1926    1932    1941       1    1914    1896    1917    1929       1
    1914    1923    1932    1941       1    1911    1893    1914    1923       1
    1908    1890    1902    1920       1    1905    1884    1902    1920       1
    1899    1881    1896    1914       1    1899    1881    1896    1917       1
    1896    1914    1893    1911       1    1896    1914    1923    1935       1
    1896    1917    1926    1938       1    1893    1914    1923    1935       1
    1890    1902    1884    1905       1    1887    1866    1884    1902       1
    1887    1866    1884    1905       1    1884    1902    1890    1908       1
    1881    1896    1917    1929       1    1878    1860    1881    1899       1
    1875    1857    1878    1893       1    1872    1854    1869    1890       1
    1869    1848    1866    1887       1    1869    1890    1902    1920       1
    1866    1884    1902    1920       1    1863    1845    1860    1878       1
    1863    1845    1860    1881       1    1860    1878    1857    1875       1
    1860    1878    1893    1911       1    1857    1842    1854    1872       1
    1857    1878    1893    1911       1    1854    1842    1857    1875       1
    1854    1869    1890    1908       1    1851    1839    1848    1866       1
    1851    1839    1848    1869       1    1848    1866    1884    1905       1
    1848    1869    1854    1872       1    1848    1869    1890    1908       1
    1845    1836    1839    1851       1    1845    1860    1881    1899       1
    1842    1836    1839    1851       1    1842    1836    1845    1863       1
    1839    1836    1845    1863       1    1839    1848    1866    1887       1
    1836    1842    1854    1872       1    1836    1842    1857    1875       1
    2046    2034    2040    2049       1    2043    2031    2040    2049       1
    2037    2025    2034    2040       1    2037    2025    2034    2046       1
    2034    2040    2031    2043       1    2031    2040    2034    2046       1
    2025    2034    2040    2049       1    2022    2004    2025    2037       1
    2022    2031    2040    2049       1    2019    2001    2022    2031       1
    2016    1998    2010    2028       1    2013    1992    2010    2028       1
    2007    1989    2004    2022       1    2007    1989    2004    2025       1
    2004    2022    2001    2019       1    2004    2022    2031    2043       1
    2004    2025    2034    2046       1    2001    2022    2031    2043       1
    1998    2010    1992    2013       1    1995    1974    1992    2010       1
    1995    1974    1992    2013       1    1992    2010    1998    2016       1
    1989    2004    2025    2037       1    1986    1968    1989    2007       1
    1983    1965    1986    2001       1    1980    1962    1977    1998       1
    1977    1956    1974    1995       1    1977    1998    2010    2028       1
    1974    1992    2010    2028       1    1971    1953    1968    1986       1
    1971    1953    1968    1989       1    1968    1986    1965    1983       1
    1968    1986    2001    2019       1    1965    1950    1962    1980       1
    1965    1986    2001    2019       1    1962    1950    1965    1983       1
    1962    1977    1998    2016       1    1959    1947    1956    1974       1
    1959    1947    1956    1977       1    1956    1974    1992    2013       1
    1956    1977    1962    1980       1    1956    1977    1998    2016       1
    1953    1944    1947    1959       1    1953    1968    1989    2007       1
    1950    1944    1947    1959       1    1950    1944    1953    1971       1
    1947    1944    1953    1971       1    1947    1956    1974    1995       1
    1944    1950    1962    1980       1    1944    1950    1965    1983       1
    2154    2142    2148    2157       1    2151    2139    2148    2157       1
    2145    2133    2142    2148       1    2145    2133    2142    2154       1
    2142    2148    2139    2151       1    2139    2148    2142    2154       1
    2133    2142    2148    2157       1    2130    2112    2133    2145       1
    2130    2139    2148    2157       1    2127    2109    2130    2139       1
    2124    2106    2118    2136       1    2121    2100    2118    2136       1
    2115    2097    2112    2130       1    2115    2097    2112    2133       1
    2112    2130    2109    2127       1    2112    2130    2139    2151       1
    2112    2133    2142    2154       1    2109    2130    2139    2151       1
    2106    2118    2100    2121       1    2103    2082    2100    2118       1
    2103    2082    2100    2121       1    2100    2118    2106    2124       1
    2097    2112    2133    2145       1    2094    2076    2097    2115       1
    2091    2073    2094    2109       1    2088    2070    2085    2106       1
    2085    2064    2082    2103       1    2085    2106    2118    2136       1
    2082    2100    2118    2136       1    2079    2061    2076    2094       1
    2079    2061    2076    2097       1    2076    2094    2073    2091       1
    2076    2094    2109    2127       1    2073    2058    2070    2088       1
    2073    2094    2109    2127       1    2070    2058    2073    2091       1
    2070    2085    2106    2124       1    2067    2055    2064    2082       1
    2067    2055    2064    2085       1    2064    2082    2100    2121       1
    2064    2085    2070    2088       1    2064    2085    2106    2124       1
    2061    2052    2055    2067       1    2061    2076    2097    2115       1
    2058    2052    2055    2067       1    2058    2052    2061    2079       1
    2055    2052    2061    2079       1    2055    2064    2082    2103       1
    2052    2058    2070    2088       1    2052    2058    2073    2091       1
    2262    2250    2256    2265       1    2259    2247    2256    2265       1
    2253    2241    2250    2256       1    2253    2241    2250    2262       1
    2250    2256    2247    2259       1    2247    2256    2250    2262       1
    2241    2250    2256    2265       1    2238    2220    2241    2253       1
    2238    2247    2256    2265       1    2235    2217    2238    2247       1
    2232    2214    2226    2244       1    2229    2208    2226    2244       1
    2223    2205    2220    2238       1    2223    2205    2220    2241       1
    2220    2238    2217    2235       1    2220    2238    2247    2259       1
    2220    2241    2250    2262       1    2217    2238    2247    2259       1
    2214    2226    2208    2229       1    2211    2190    2208    2226       1
    2211    2190    2208    2229       1    2208    2226    2214    2232       1
    2205    2220    2241    2253       1    2202    2184    2205    2223       1
    2199    2181    2202    2217       1    2196    2178    2193    2214       1
    2193    2172    2190    2211       1    2193    2214    2226    2244       1
    2190    2208    2226    2244       1    2187    2169    2184    2202       1
    2187    2169    2184    2205       1    2184    2202    2181    2199       1
    2184    2202    2217    2235       1    2181    2166    2178    2196       1
    2181    2202    2217    2235       1    2178    2166    2181    2199       1
    2178    2193    2214    2232       1    2175    2163    2172    2190       1
    2175    2163    2172    2193       1    2172    2190    2208    2229       1
    2172    2193    2178    2196       1    2172    2193    2214    2232       1
    2169    2160    2163    2175       1    2169    2184    2205    2223       1
    2166    2160    2163    2175       1    2166    2160    2169    2187       1
    2163    2160    2169    2187       1    2163    2172    2190    2211       1
    2160    2166    2178    2196       1    2160    2166    2181    2199       1
    2370    2358    2364    2373       1    2367    2355    2364    2373       1
    2361    2349    2358    2364       1    2361    2349    2358    2370       1
    2358    2364    2355    2367       1    2355    2364    2358    2370       1
    2349    2358    2364    2373       1    2346    2328    2349    2361       1
    2346    2355    2364    2373       1    2343    2325    2346    2355       1
    2340    2322    2334    2352       1    2337    2316    2334    2352       1
    2331    2313    2328    2346       1    2331    2313    2328    2349       1
    2328    2346    2325    2343       1    2328    2346    2355    2367       1
    2328    2349    2358    2370       1    2325    2346    2355    2367       1
    2322    2334    2316    2337       1    2319    2298    2316    2334       1
    2319    2298    2316    2337       1    2316    2334    2322    2340       1
    2313    2328    2349    2361       1    2310    2292    2313    2331       1
    2307    2289    2310    2325       1    2304    2286    2301    2322       1
    2301    2280    2298    2319       1    2301    2322    2334    2352       1
    2298    2316    2334    2352       1    2295    2277    2292    2310       1
    2295    2277    2292    2313       1    2292    2310    2289    2307       1
    2292    2310    2325    2343       1    2289    2274    2286    2304       1
    2289    2310    2325    2343       1    2286    2274    2289    2307       1
    2286    2301    2322    2340       1    2283    2271    2280    2298       1
    2283    2271    2280    2301       1    2280    2298    2316    2337       1
    2280    2301    2286    2304       1    2280    2301    2322    2340       1
    2277    2268    2271    2283       1    2277    2292    2313    2331       1
    2274    2268    2271    2283       1    2274    2268    2277    2295       1
    2271    2268    2277    2295       1    2271    2280    2298    2319       1
    2268    2274    2286    2304       1    2268    2274    2289    2307       1
    2478    2466    2472    2481       1    2475    2463    2472    2481       1
    2469    2457    2466    2472       1    2469    2457    2466    2478       1
    2466    2472    2463    2475       1    2463    2472    2466    2478       1
    2457    2466    2472    2481       1    2454    2436    2457    2469       1
    2454    2463    2472    2481       1    2451    2433    2454    2463       1
    2448    2430    2442    2460       1    2445    2424    2442    2460       1
    2439    2421    2436    2454       1    2439    2421    2436    2457       1
    2436    2454    2433    2451       1    2436    2454    2463    2475       1
    2436    2457    2466    2478       1    2433    2454    2463    2475       1
    2430    2442    2424    2445       1    2427    2406    2424    2442       1
    2427    2406    2424    2445       1    2424    2442    2430    2448       1
    2421    2436    2457    2469       1    2418    2400    2421    2439       1
    2415    2397    2418    2433       1    2412    2394    2409    2430       1
    2409    2388    2406    2427       1    2409    2430    2442    2460       1
    2406    2424    2442    2460       1    2403    2385    2400    2418       1
    2403    2385    2400    2421       1    2400    2418    2397    2415       1
    2400    2418    2433    2451       1    2397    2382    2394    2412       1
    2397    2418    2433    2451       1    2394    2382    2397    2415       1
    2394    2409    2430    2448       1    2391    2379    2388    2406       1
    2391    2379    2388    2409       1    2388    2406    2424    2445       1
    2388    2409    2394    2412       1    2388    2409    2430    2448       1
    2385    2376    2379    2391       1    2385    2400    2421    2439       1
    2382    2376    2379    2391       1    2382    2376    2385    2403       1
    2379    2376    2385    2403       1    2379    2388    2406    2427       1
    2376    2382    2394    2412       1    2376    2382    2397    2415       1
    2586    2574    2580    2589       1    2583    2571    2580    2589       1
    2577    2565    2574    2580       1    2577    2565    2574    2586       1
    2574    2580    2571    2583       1    2571    2580    2574    2586       1
    2565    2574    2580    2589       1    2562    2544    2565    2577       1
    2562    2571    2580    2589       1    2559    2541    2562    2571       1
    2556    2538    2550    2568       1    2553    2532    2550    2568       1
    2547    2529    2544    2562       1    2547    2529    2544    2565       1
    2544    2562    2541    2559       1    2544    2562    2571    2583       1
    2544    2565    2574    2586       1    2541    2562    2571    2583       1
    2538    2550    2532    2553       1    2535    2514    2532    2550       1
    2535    2514    2532    2553       1    2532    2550    2538    2556       1
    2529    2544    2565    2577       1    2526    2508    2529    2547       1
    2523    2505    2526    2541       1    2520    2502    2517    2538       1
    2517    2496    2514    2535       1    2517    2538    2550    2568       1
    2514    2532    2550    2568       1    2511    2493    2508    2526       1
    2511    2493    2508    2529       1    2508    2526    2505    2523       1
    2508    2526    2541    2559       1    2505    2490    2502    2520       1
    2505    2526    2541    2559       1    2502    2490    2505    2523       1
    2502    2517    2538    2556       1    2499    2487    2496    2514       1
    2499    2487    2496    2517       1    2496    2514    2532    2553       1
    2496    2517    2502    2520       1    2496    2517    2538    2556       1
    2493    2484    2487    2499       1    2493    2508    2529    2547       1
    2490    2484    2487    2499       1    2490    2484    2493    2511       1
    2487    2484    2493    2511       1    2487    2496    2514    2535       1
    2484    2490    2502    2520       1    2484    2490    2505    2523       1
    2694    2682    2688    2697       1    2691    2679    2688    2697       1
    2685    2673    2682    2688       1    2685    2673    2682    2694       1
    2682    2688    2679    2691       1    2679    2688    2682    2694       1
    2673    2682    2688    2697       1    2670    2652    2673    2685       1
    2670    2679    2688    2697       1    2667    2649    2670    2679       1
    2664    2646    2658    2676       1    2661    2640    2658    2676       1
    2655    2637    2652    2670       1    2655    2637    2652    2673       1
    2652    2670    2649    2667       1    2652    2670    2679    2691       1
    2652    2673    2682    2694       1    2649    2670    2679    2691       1
    2646    2658    2640    2661       1    2643    2622    2640    2658       1
    2643    2622    2640    2661       1    2640    2658    2646    2664       1
    2637    2652    2673    2685       1    2634    2616    2637    2655       1
    2631    2613    2634    2649       1    2628    2610    2625    2646       1
    2625    2604    2622    2643       1    2625    2646    2658    2676       1
    2622    2640    2658    2676       1    2619    2601    2616    2634       1
    2619    2601    2616    2637       1    2616    2634    2613    2631       1
    2616    2634    2649    2667       1    2613    2598    2610    2628       1
    2613    2634    2649    2667       1    2610    2598    2613    2631       1
    2610    2625    2646    2664       1    2607    2595    2604    2622       1
    2607    2595    2604    2625       1    2604    2622    2640    2661       1
    2604    2625    2610    2628       1    2604    2625    2646    2664       1
    2601    2592    2595    2607       1    2601    2616    2637    2655       1
    2598    2592    2595    2607       1    2598    2592    2601    2619       1
    2595    2592    2601    2619       1    2595    2604    2622    2643       1
    2592    2598    2610    2628       1    2592    2598    2613    2631       1
    2802    2790    2796    2805       1    2799    2787    2796    2805       1
    2793    2781    2790    2796       1    2793    2781    2790    2802       1
    2790    2796    2787    2799       1    2787    2796    2790    2802       1
    2781    2790    2796    2805       1    2778    2760    2781    2793       1
    2778    2787    2796    2805       1    2775    2757    2778    2787       1
    2772    2754    2766    2784       1    2769    2748    2766    2784       1
    2763    2745    2760    2778       1    2763    2745    2760    2781       1
    2760    2778    2757    2775       1    2760    2778    2787    2799       1
    2760    2781    2790    2802       1    2757    2778    2787    2799       1
    2754    2766    2748    2769       1    2751    2730    2748    2766       1
    2751    2730    2748    2769       1    2748    2766    2754    2772       1
    2745    2760    2781    2793       1    2742    2724    2745    2763       1
    2739    2721    2742    2757       1    2736    2718    2733    2754       1
    2733    2712    2730    2751       1    2733    2754    2766    2784       1
    2730    2748    2766    2784       1    2727    2709    2724    2742       1
    2727    2709    2724    2745       1    2724    2742    2721    2739       1
    2724    2742    2757    2775       1    2721    2706    2718    2736       1
    2721    2742    2757    2775       1    2718    2706    2721    2739       1
    2718    2733    2754    2772       1    2715    2703    2712    2730       1
    2715    2703    2712    2733       1    2712    2730    2748    2769       1
    2712    2733    2718    2736       1    2712    2733    2754    2772       1
    2709    2700    2703    2715       1    2709    2724    2745    2763       1
    2706    2700    2703    2715       1    2706    2700    2709    2727       1
    2703    2700    2709    2727       1    2703    2712    2730    2751       1
    2700    2706    2718    2736       1    2700    2706    2721    2739       1
    2910    2898    2904    2913       1    2907    2895    2904    2913       1
    2901    2889    2898    2904       1    2901    2889    2898    2910       1
    2898    2904    2895    2907       1    2895    2904    2898    2910       1
    2889    2898    2904    2913       1    2886    2868    2889    2901       1
    2886    2895    2904    2913       1    2883    2865    2886    2895       1
    2880    2862    2874    2892       1    2877    2856    2874    2892       1
    2871    2853    2868    2886       1    2871    2853    2868    2889       1
    2868    2886    2865    2883       1    2868    2886    2895    2907       1
    2868    2889    2898    2910       1    2865    2886    2895    2907       1
    2862    2874    2856    2877       1    2859    2838    2856    2874       1
    2859    2838    2856    2877       1    2856    2874    2862    2880       1
    2853    2868    2889    2901       1    2850    2832    2853    2871       1
    2847    2829    2850    2865       1    2844    2826    2841    2862       1
    2841    2820    2838    2859       1    2841    2862    2874    2892       1
    2838    2856    2874    2892       1    2835    2817    2832    2850       1
    2835    2817    2832    2853       1    2832    2850    2829    2847       1
    2832    2850    2865    2883       1    2829    2814    2826    2844       1
    2829    2850    2865    2883       1    2826    2814    2829    2847       1
    2826    2841    2862    2880       1    2823    2811    2820    2838       1
    2823    2811    2820    2841       1    2820    2838    2856    2877       1
    2820    2841    2826    2844       1    2820    2841    2862    2880       1
    2817    2808    2811    2823       1    2817    2832    2853    2871       1
    2814    2808    2811    2823       1    2814    2808    2817    2835       1
    2811    2808    2817    2835       1    2811    2820    2838    2859       1
    2808    2814    2826    2844       1    2808    2814    2829    2847       1
    3018    3006    3012    3021       1    3015    3003    3012    3021       1
    3009    2997    3006    3012       1    3009    2997    3006    3018       1
    3006    3012    3003    3015       1    3003    3012    3006    3018       1
    2997    3006    3012    3021       1    2994    2976    2997    3009       1
    2994    3003    3012    3021       1    2991    2973    2994    3003       1
    2988    2970    2982    3000       1    2985    2964    2982    3000       1
    2979    2961    2976    2994       1    2979    2961    2976    2997       1
    2976    2994    2973    2991       1    2976    2994    3003    3015       1
    2976    2997    3006    3018       1    2973    2994    3003    3015       1
    2970    2982    2964    2985       1    2967    2946    2964    2982       1
    2967    2946    2964    2985       1    2964    2982    2970    2988       1
    2961    2976    2997    3009       1    2958    2940    2961    2979       1
    2955    2937    2958    2973       1    2952    2934    2949    2970       1
    2949    2928    2946    2967       1    2949    2970    2982    3000       1
    2946    2964    2982    3000       1    2943    2925    2940    2958       1
    2943    2925    2940    2961       1    2940    2958    2937    2955       1
    2940    2958    2973    2991       1    2937    2922    2934    2952       1
    2937    2958    2973    2991       1    2934    2922    2937    2955       1
    2934    2949    2970    2988       1    2931    2919    2928    2946       1
    2931    2919    2928    2949       1    2928    2946    2964    2985       1
    2928    2949    2934    2952       1    2928    2949    2970    2988       1
    2925    2916    2919    2931       1    2925    2940    2961    2979       1
    2922    2916    2919    2931       1    2922    2916    2925    2943       1
    2919    2916    2925    2943       1    2919    2928    2946    2967       1
    2916    2922    2934    2952       1    2916    2922    2937    2955       1
    3126    3114    3120    3129       1    3123    3111    3120    3129       1
    3117    3105    3114    3120       1    3117    3105    3114    3126       1
    3114    3120    3111    3123       1    3111    3120    3114    3126       1
    3105    3114    3120    3129       1    3102    3084    3105    3117       1
    3102    3111    3120    3129       1    3099    3081    3102    3111       1
    3096    3078    3090    3108       1    3093    3072    3090    3108       1
    3087    3069    3084    3102       1    3087    3069    3084    3105       1
    3084    3102    3081    3099       1    3084    3102    3111    3123       1
    3084    3105    3114    3126       1    3081    3102    3111    3123       1
    3078    3090    3072    3093       1    3075    3054    3072    3090       1
    3075    3054    3072    3093       1    3072    3090    3078    3096       1
    3069    3084    3105    3117       1    3066    3048    3069    3087       1
    3063    3045    3066    3081       1    3060    3042    3057    3078       1
    3057    3036    3054    3075       1    3057    3078    3090    3108       1
    3054    3072    3090    3108       1    3051    3033    3048    3066       1
    3051    3033    3048    3069       1    3048    3066    3045    3063       1
    3048    3066    3081    3099       1    3045    3030    3042    3060       1
    3045    3066    3081    3099       1    3042    3030    3045    3063       1
    3042    3057    3078    3096       1    3039    3027    3036    3054       1
    3039    3027    3036    3057       1    3036    3054    3072    3093       1
    3036    3057    3042    3060       1    3036    3057    3078    3096       1
    3033    3024    3027    3039       1    3033    3048    3069    3087       1
    3030    3024    3027    3039       1    3030    3024    3033    3051       1
    3027    3024    3033    3051       1    3027    3036    3054    3075       1
    3024    3030    3042    3060       1    3024    3030    3045    3063       1
    3234    3222    3228    3237       1    3231    3219    3228    3237       1
    3225    3213    3222    3228       1    3225    3213    3222    3234       1
    3222    3228    3219    3231       1    3219    3228    3222    3234       1
    3213    3222    3228    3237       1    3210    3192    3213    3225       1
    3210    3219    3228    3237       1    3207    3189    3210    3219       1
    3204    3186    3198    3216       1    3201    3180    3198    3216       1
    3195    3177    3192    3210       1    3195    3177    3192    3213       1
    3192    3210    3189    3207       1    3192    3210    3219    3231       1
    3192    3213    3222    3234       1    3189    3210    3219    3231       1
    3186    3198    3180    3201       1    3183    3162    3180    3198       1
    3183    3162    3180    3201       1    3180    3198    3186    3204       1
    3177    3192    3213    3225       1    3174    3156    3177    3195       1
    3171    3153    3174    3189       1    3168    3150    3165    3186       1
    3165    3144    3162    3183       1    3165    3186    3198    3216       1
    3162    3180    3198    3216       1    3159    3141    3156    3174       1
    3159    3141    3156    3177       1    3156    3174    3153    3171       1
    3156    3174    3189    3207       1    3153    3138    3150    3168       1
    3153    3174    3189    3207       1    3150    3138    3153    3171       1
    3150    3165    3186    3204       1    3147    3135    3144    3162       1
    3147    3135    3144    3165       1    3144    3162    3180    3201       1
    3144    3165    3150    3168       1    3144    3165    3186    3204       1
    3141    3132    3135    3147       1    3141    3156    3177    3195       1
    3138    3132    3135    3147       1    3138    3132    3141    3159       1
    3135    3132    3141    3159       1    3135    3144    3162    3183       1
    3132    3138    3150    3168       1    3132    3138    3153    3171       1
    3342    3330    3336    3345       1    3339    3327    3336    3345       1
    3333    3321    3330    3336       1    3333    3321    3330    3342       1
    3330    3336    3327    3339       1    3327    3336    3330    3342       1
    3321    3330    3336    3345       1    3318    3300    3321    3333       1
    3318    3327    3336    3345       1    3315    3297    3318    3327       1
    3312    3294    3306    3324       1    3309    3288    3306    3324       1
    3303    3285    3300    3318       1    3303    3285    3300    3321       1
    3300    3318    3297    3315       1    3300    3318    3327    3339       1
    3300    3321    3330    3342       1    3297    3318    3327    3339       1
    3294    3306    3288    3309       1    3291    3270    3288    3306       1
    3291    3270    3288    3309       1    3288    3306    3294    3312       1
    3285    3300    3321    3333       1    3282    3264    3285    3303       1
    3279    3261    3282    3297       1    3276    3258    3273    3294       1
    3273    3252    3270    3291       1    3273    3294    3306    3324       1
    3270    3288    3306    3324       1    3267    3249    3264    3282       1
    3267    3249    3264    3285       1    3264    3282    3261    3279       1
    3264    3282    3297    3315       1    3261    3246    3258    3276       1
    3261    3282    3297    3315       1    3258    3246    3261    3279       1
    3258    3273    3294    3312       1    3255    3243    3252    3270       1
    3255    3243    3252    3273       1    3252    3270    3288    3309       1
    3252    3273    3258    3276       1    3252    3273    3294    3312       1
    3249    3240    3243    3255       1    3249    3264    3285    3303       1
    3246    3240    3243    3255       1    3246    3240    3249    3267       1
    3243    3240    3249    3267       1    3243    3252    3270    3291       1
    3240    3246    3258    3276       1    3240    3246    3261    3279       1
    3450    3438    3444    3453       1    3447    3435    3444    3453       1
    3441    3429    3438    3444       1    3441    3429    3438    3450       1
    3438    3444    3435    3447       1    3435    3444    3438    3450       1
    3429    3438    3444    3453       1    3426    3408    3429    3441       1
    3426    3435    3444    3453       1    3423    3405    3426    3435       1
    3420    3402    3414    3432       1    3417    3396    3414    3432       1
    3411    3393    3408    3426       1    3411    3393    3408    3429       1
    3408    3426    3405    3423       1    3408    3426    3435    3447       1
    3408    3429    3438    3450       1    3405    3426    3435    3447       1
    3402    3414    3396    3417       1    3399    3378    3396    3414       1
    3399    3378    3396    3417       1    3396    3414    3402    3420       1
    3393    3408    3429    3441       1    3390    3372    3393    3411       1
    3387    3369    3390    3405       1    3384    3366    3381    3402       1
    3381    3360    3378    3399       1    3381    3402    3414    3432       1
    3378    3396    3414    3432       1    3375    3357    3372    3390       1
    3375    3357    3372    3393       1    3372    3390    3369    3387       1
    3372    3390    3405    3423       1    3369    3354    3366    3384       1
    3369    3390    3405    3423       1    3366    3354    3369    3387       1
    3366    3381    3402    3420       1    3363    3351    3360    3378       1
    3363    3351    3360    3381       1    3360    3378    3396    3417       1
    3360    3381    3366    3384       1    3360    3381    3402    3420       1
    3357    3348    3351    3363       1    3357    3372    3393    3411       1
    3354    3348    3351    3363       1    3354    3348    3357    3375       1
    3351    3348    3357    3375       1    3351    3360    3378    3399       1
    3348    3354    3366    3384       1    3348    3354    3369    3387       1
    3558    3546    3552    3561       1    3555    3543    3552    3561       1
    3549    3537    3546    3552       1    3549    3537    3546    3558       1
    3546    3552    3543    3555       1    3543    3552    3546    3558       1
    3537    3546    3552    3561       1    3534    3516    3537    3549       1
    3534    3543    3552    3561       1    3531    3513    3534    3543       1
    3528    3510    3522    3540       1    3525    3504    3522    3540       1
    3519    3501    3516    3534       1    3519    3501    3516    3537       1
    3516    3534    3513    3531       1    3516    3534    3543    3555       1
    3516    3537    3546    3558       1    3513    3534    3543    3555       1
    3510    3522    3504    3525       1    3507    3486    3504    3522       1
    3507    3486    3504    3525       1    3504    3522    3510    3528       1
    3501    3516    3537    3549       1    3498    3480    3501    3519       1
    3495    3477    3498    3513       1    3492    3474    3489    3510       1
    3489    3468    3486    3507       1    3489    3510    3522    3540       1
    3486    3504    3522    3540       1    3483    3465    3480    3498       1
    3483    3465    3480    3501       1    3480    3498    3477    3495       1
    3480    3498    3513    3531       1    3477    3462    3474    3492       1
    3477    3498    3513    3531       1    3474    3462    3477    3495       1
    3474    3489    3510    3528       1    3471    3459    3468    3486       1
    3471    3459    3468    3489       1    3468    3486    3504    3525       1
    3468    3489    3474    3492       1    3468    3489    3510    3528       1
    3465    3456    3459    3471       1    3465    3480    3501    3519       1
    3462    3456    3459    3471       1    3462    3456    3465    3483       1
    3459    3456    3465    3483       1    3459    3468    3486    3507       1
    3456    3462    3474    3492       1    3456    3462    3477    3495       1
    3666    3654    3660    3669       1    3663    3651    3660    3669       1
    3657    3645    3654    3660       1    3657    3645    3654    3666       1
    3654    3660    3651    3663       1    3651    3660    3654    3666       1
    3645    3654    3660    3669       1    3642    3624    3645    3657       1
    3642    3651    3660    3669       1    3639    3621    3642    3651       1
    3636    3618    3630    3648       1    3633    3612    3630    3648       1
    3627    3609    3624    3642       1    3627    3609    3624    3645       1
    3624    3642    3621    3639       1    3624    3642    3651    3663       1
    3624    3645    3654    3666       1    3621    3642    3651    3663       1
    3618    3630    3612    3633       1    3615    3594    3612    3630       1
    3615    3594    3612    3633       1    3612    3630    3618    3636       1
    3609    3624    3645    3657       1    3606    3588    3609    3627       1
    3603    3585    3606    3621       1    3600    3582    3597    3618       1
    3597    3576    3594    3615       1    3597    3618    3630    3648       1
    3594    3612    3630    3648       1    3591    3573    3588    3606       1
    3591    3573    3588    3609       1    3588    3606    3585    3603       1
    3588    3606    3621    3639       1    3585    3570    3582    3600       1
    3585    3606    3621    3639       1    3582    3570    3585    3603       1
    3582    3597    3618    3636       1    3579    3567    3576    3594       1
    3579    3567    3576    3597       1    3576    3594    3612    3633       1
    3576    3597    3582    3600       1    3576    3597    3618    3636       1
    3573    3564    3567    3579       1    3573    3588    3609    3627       1
    3570    3564    3567    3579       1    3570    3564    3573    3591       1
    3567    3564    3573    3591       1    3567    3576    3594    3615       1
    3564    3570    3582    3600       1    3564    3570    3585    3603       1
    3774    3762    3768    3777       1    3771    3759    3768    3777       1
    3765    3753    3762    3768       1    3765    3753    3762    3774       1
    3762    3768    3759    3771       1    3759    3768    3762    3774       1
    3753    3762    3768    3777       1    3750    3732    3753    3765       1
    3750    3759    3768    3777       1    3747    3729    3750    3759       1
    3744    3726    3738    3756       1    3741    3720    3738    3756       1
    3735    3717    3732    3750       1    3735    3717    3732    3753       1
    3732    3750    3729    3747       1    3732    3750    3759    3771       1
    3732    3753    3762    3774       1    3729    3750    3759    3771       1
    3726    3738    3720    3741       1    3723    3702    3720    3738       1
    3723    3702    3720    3741       1    3720    3738    3726    3744       1
    3717    3732    3753    3765       1    3714    3696    3717    3735       1
    3711    3693    3714    3729       1    3708    3690    3705    3726       1
    3705    3684    3702    3723       1    3705    3726    3738    3756       1
    3702    3720    3738    3756       1    3699    3681    3696    3714       1
    3699    3681    3696    3717       1    3696    3714    3693    3711       1
    3696    3714    3729    3747       1    3693    3678    3690    3708       1
    3693    3714    3729    3747       1    3690    3678    3693    3711       1
    3690    3705    3726    3744       1    3687    3675    3684    3702       1
    3687    3675    3684    3705       1    3684    3702    3720    3741       1
    3684    3705    3690    3708       1    3684    3705    3726    3744       1
    3681    3672    3675    3687       1    3681    3696    3717    3735       1
    3678    3672    3675    3687       1    3678    3672    3681    3699       1
    3675    3672    3681    3699       1    3675    3684    3702    3723       1
    3672    3678    3690    3708       1    3672    3678    3693    3711       1
    3882    3870    3876    3885       1    3879    3867    3876    3885       1
    3873    3861    3870    3876       1    3873    3861    3870    3882       1
    3870    3876    3867    3879       1    3867    3876    3870    3882       1
    3861    3870    3876    3885       1    3858    3840    3861    3873       1
    3858    3867    3876    3885       1    3855    3837    3858    3867       1
    3852    3834    3846    3864       1    3849    3828    3846    3864       1
    3843    3825    3840    3858       1    3843    3825    3840    3861       1
    3840    3858    3837    3855       1    3840    3858    3867    3879       1
    3840    3861    3870    3882       1    3837    3858    3867    3879       1
    3834    3846    3828    3849       1    3831    3810    3828    3846       1
    3831    3810    3828    3849       1    3828    3846    3834    3852       1
    3825    3840    3861    3873       1    3822    3804    3825    3843       1
    3819    3801    3822    3837       1    3816    3798    3813    3834       1
    3813    3792    3810    3831       1    3813    3834    3846    3864       1
    3810    3828    3846    3864       1    3807    3789    3804    3822       1
    3807    3789    3804    3825       1    3804    3822    3801    3819       1
    3804    3822    3837    3855       1    3801    3786    3798    3816       1
    3801    3822    3837    3855       1    3798    3786    3801    3819       1
    3798    3813    3834    3852       1    3795    3783    3792    3810       1
    3795    3783    3792    3813       1    3792    3810    3828    3849       1
    3792    3813    3798    3816       1    3792    3813    3834    3852       1
    3789    3780    3783    3795       1    3789    3804    3825    3843       1
    3786    3780    3783    3795       1    3786    3780    3789    3807       1
    3783    3780    3789    3807       1    3783    3792    3810    3831       1
    3780    3786    3798    3816       1    3780    3786    3801    3819       1
    3990    3978    3984    3993       1    3987    3975    3984    3993       1
    3981    3969    3978    3984       1    3981    3969    3978    3990       1
    3978    3984    3975    3987       1    3975    3984    3978    3990       1
    3969    3978    3984    3993       1    3966    3948    3969    3981       1
    3966    3975    3984    3993       1    3963    3945    3966    3975       1
    3960    3942    3954    3972       1    3957    3936    3954    3972       1
    3951    3933    3948    3966       1    3951    3933    3948    3969       1
    3948    3966    3945    3963       1    3948    3966    3975    3987       1
    3948    3969    3978    3990       1    3945    3966    3975    3987       1
    3942    3954    3936    3957       1    3939    3918    3936    3954       1
    3939    3918    3936    3957       1    3936    3954    3942    3960       1
    3933    3948    3969    3981       1    3930    3912    3933    3951       1
    3927    3909    3930    3945       1    3924    3906    3921    3942       1
    3921    3900    3918    3939       1    3921    3942    3954    3972       1
    3918    3936    3954    3972       1    3915    3897    3912    3930       1
    3915    3897    3912    3933       1    3912    3930    3909    3927       1
    3912    3930    3945    3963       1    3909    3894    3906    3924       1
    3909    3930    3945    3963       1    3906    3894    3909    3927       1
    3906    3921    3942    3960       1    3903    3891    3900    3918       1
    3903    3891    3900    3921       1    3900    3918    3936    3957       1
    3900    3921    3906    3924       1    3900    3921    3942    3960       1
    3897    3888    3891    3903       1    3897    3912    3933    3951       1
    3894    3888    3891    3903       1    3894    3888    3897    3915       1
    3891    3888    3897    3915       1    3891    3900    3918    3939       1
    3888    3894    3906    3924       1    3888    3894    3909    3927       1
    4098    4086    4092    4101       1    4095    4083    4092    4101       1
    4089    4077    4086    4092       1    4089    4077    4086    4098       1
    4086    4092    4083    4095       1    4083    4092    4086    4098       1
    4077    4086    4092    4101       1    4074    4056    4077    4089       1
    4074    4083    4092    4101       1    4071    4053    4074    4083       1
    4068    4050    4062    4080       1    4065    4044    4062    4080       1
    4059    4041    4056    4074       1    4059    4041    4056    4077       1
    4056    4074    4053    4071       1    4056    4074    4083    4095       1
    4056    4077    4086    4098       1    4053    4074    4083    4095       1
    4050    4062    4044    4065       1    4047    4026    4044    4062       1
    4047    4026    4044    4065       1    4044    4062    4050    4068       1
    4041    4056    4077    4089       1    4038    4020    4041    4059       1
    4035    4017    4038    4053       1    4032    4014    4029    4050       1
    4029    4008    4026    4047       1    4029    4050    4062    4080       1
    4026    4044    4062    4080       1    4023    4005    4020    4038       1
    4023    4005    4020    4041       1    4020    4038    4017    4035       1
    4020    4038    4053    4071       1    4017    4002    4014    4032       1
    4017    4038    4053    4071       1    4014    4002    4017    4035       1
    4014    4029    4050    4068       1    4011    3999    4008    4026       1
    4011    3999    4008    4029       1    4008    4026    4044    4065       1
    4008    4029    4014    4032       1    4008    4029    4050    4068       1
    4005    3996    3999    4011       1    4005    4020    4041    4059       1
    4002    3996    3999    4011       1    4002    3996    4005    4023       1
    3999    3996    4005    4023       1    3999    4008    4026    4047       1
    3996    4002    4014    4032       1    3996    4002    4017    4035       1
    4206    4194    4200    4209       1    4203    4191    4200    4209       1
    4197    4185    4194    4200       1    4197    4185    4194    4206       1
    4194    4200    4191    4203       1    4191    4200    4194    4206       1
    4185    4194    4200    4209       1    4182    4164    4185    4197       1
    4182    4191    4200    4209       1    4179    4161    4182    4191       1
    4176    4158    4170    4188       1    4173    4152    4170    4188       1
    4167    4149    4164    4182       1    4167    4149    4164    4185       1
    4164    4182    4161    4179       1    4164    4182    4191    4203       1
    4164    4185    4194    4206       1    4161    4182    4191    4203       1
    4158    4170    4152    4173       1    4155    4134    4152    4170       1
    4155    4134    4152    4173       1    4152    4170    4158    4176       1
    4149    4164    4185    4197       1    4146    4128    4149    4167       1
    4143    4125    4146    4161       1    4140    4122    4137    4158       1
    4137    4116    4134    4155       1    4137    4158    4170    4188       1
    4134    4152    4170    4188       1    4131    4113    4128    4146       1
    4131    4113    4128    4149       1    4128    4146    4125    4143       1
    4128    4146    4161    4179       1    4125    4110    4122    4140       1
    4125    4146    4161    4179       1    4122    4110    4125    4143       1
    4122    4137    4158    4176       1    4119    4107    4116    4134       1
    4119    4107    4116    4137       1    4116    4134    4152    4173       1
    4116    4137    4122    4140       1    4116    4137    4158    4176       1
    4113    4104    4107    4119       1    4113    4128    4149    4167       1
    4110    4104    4107    4119       1    4110    4104    4113    4131       1
    4107    4104    4113    4131       1    4107    4116    4134    4155       1
    4104    4110    4122    4140       1    4104    4110    4125    4143       1
    4314    4302    4308    4317       1    4311    4299    4308    4317       1
    4305    4293    4302    4308       1    4305    4293    4302    4314       1
    4302    4308    4299    4311       1    4299    4308    4302    4314       1
    4293    4302    4308    4317       1    4290    4272    4293    4305       1
    4290    4299    4308    4317       1    4287    4269    4290    4299       1
    4284    4266    4278    4296       1    4281    4260    4278    4296       1
    4275    4257    4272    4290       1    4275    4257    4272    4293       1
    4272    4290    4269    4287       1    4272    4290    4299    4311       1
    4272    4293    4302    4314       1    4269    4290    4299    4311       1
    4266    4278    4260    4281       1    4263    4242    4260    4278       1
    4263    4242    4260    4281       1    4260    4278    4266    4284       1
    4257    4272    4293    4305       1    4254    4236    4257    4275       1
    4251    4233    4254    4269       1    4248    4230    4245    4266       1
    4245    4224    4242    4263       1    4245    4266    4278    4296       1
    4242    4260    4278    4296       1    4239    4221    4236    4254       1
    4239    4221    4236    4257       1    4236    4254    4233    4251       1
    4236    4254    4269    4287       1    4233    4218    4230    4248       1
    4233    4254    4269    4287       1    4230    4218    4233    4251       1
    4230    4245    4266    4284       1    4227    4215    4224    4242       1
    4227    4215    4224    4245       1    4224    4242    4260    4281       1
    4224    4245    4230    4248       1    4224    4245    4266    4284       1
    4221    4212    4215    4227       1    4221    4236    4257    4275       1
    4218    4212    4215    4227       1    4218    4212    4221    4239       1
    4215    4212    4221    4239       1    4215    4224    4242    4263       1
    4212    4218    4230    4248       1    4212    4218    4233    4251       1
    4422    4410    4416    4425       1    4419    4407    4416    4425       1
    4413    4401    4410    4416       1    4413    4401    4410    4422       1
    4410    4416    4407    4419       1    4407    4416    4410    4422       1
    4401    4410    4416    4425       1    4398    4380    4401    4413       1
    4398    4407    4416    4425       1    4395    4377    4398    4407       1
    4392    4374    4386    4404       1    4389    4368    4386    4404       1
    4383    4365    4380    4398       1    4383    4365    4380    4401       1
    4380    4398    4377    4395       1    4380    4398    4407    4419       1
    4380    4401    4410    4422       1    4377    4398    4407    4419       1
    4374    4386    4368    4389       1    4371    4350    4368    4386       1
    4371    4350    4368    4389       1    4368    4386    4374    4392       1
    4365    4380    4401    4413       1    4362    4344    4365    4383       1
    4359    4341    4362    4377       1    4356    4338    4353    4374       1
    4353    4332    4350    4371       1    4353    4374    4386    4404       1
    4350    4368    4386    4404       1    4347    4329    4344    4362       1
    4347    4329    4344    4365       1    4344    4362    4341    4359       1
    4344    4362    4377    4395       1    4341    4326    4338    4356       1
    4341    4362    4377    4395       1    4338    4326    4341    4359       1
    4338    4353    4374    4392       1    4335    4323    4332    4350       1
    4335    4323    4332    4353       1    4332    4350    4368    4389       1
    4332    4353    4338    4356       1    4332    4353    4374    4392       1
    4329    4320    4323    4335       1    4329    4344    4365    4383       1
    4326    4320    4323    4335       1    4326    4320    4329    4347       1
    4323    4320    4329    4347       1    4323    4332    4350    4371       1
    4320    4326    4338    4356       1    4320    4326    4341    4359       1
    4530    4518    4524    4533       1    4527    4515    4524    4533       1
    4521    4509    4518    4524       1    4521    4509    4518    4530       1
    4518    4524    4515    4527       1    4515    4524    4518    4530       1
    4509    4518    4524    4533       1    4506    4488    4509    4521       1
    4506    4515    4524    4533       1    4503    4485    4506    4515       1
    4500    4482    4494    4512       1    4497    4476    4494    4512       1
    4491    4473    4488    4506       1    4491    4473    4488    4509       1
    4488    4506    4485    4503       1    4488    4506    4515    4527       1
    4488    4509    4518    4530       1    4485    4506    4515    4527       1
    4482    4494    4476    4497       1    4479    4458    4476    4494       1
    4479    4458    4476    4497       1    4476    4494    4482    4500       1
    4473    4488    4509    4521       1    4470    4452    4473    4491       1
    4467    4449    4470    4485       1    4464    4446    4461    4482       1
    4461    4440    4458    4479       1    4461    4482    4494    4512       1
    4458    4476    4494    4512       1    4455    4437    4452    4470       1
    4455    4437    4452    4473       1    4452    4470    4449    4467       1
    4452    4470    4485    4503       1    4449    4434    4446    4464       1
    4449    4470    4485    4503       1    4446    4434    4449    4467       1
    4446    4461    4482    4500       1    4443    4431    4440    4458       1
    4443    4431    4440    4461       1    4440    4458    4476    4497       1
    4440    4461    4446    4464       1    4440    4461    4482    4500       1
    4437    4428    4431    4443       1    4437    4452    4473    4491       1
    4434    4428    4431    4443       1    4434    4428    4437    4455       1
    4431    4428    4437    4455       1    4431    4440    4458    4479       1
    4428    4434    4446    4464       1    4428    4434    4449    4467       1
    4638    4626    4632    4641       1    4635    4623    4632    4641       1
    4629    4617    4626    4632       1    4629    4617    4626    4638       1
    4626    4632    4623    4635       1    4623    4632    4626    4638       1
    4617    4626    4632    4641       1    4614    4596    4617    4629       1
    4614    4623    4632    4641       1    4611    4593    4614    4623       1
    4608    4590    4602    4620       1    4605    4584    4602    4620       1
    4599    4581    4596    4614       1    4599    4581    4596    4617       1
    4596    4614    4593    4611       1    4596    4614    4623    4635       1
    4596    4617    4626    4638       1    4593    4614    4623    4635       1
    4590    4602    4584    4605       1    4587    4566    4584    4602       1
    4587    4566    4584    4605       1    4584    4602    4590    4608       1
    4581    4596    4617    4629       1    4578    4560    4581    4599       1
    4575    4557    4578    4593       1    4572    4554    4569    4590       1
    4569    4548    4566    4587       1    4569    4590    4602    4620       1
    4566    4584    4602    4620       1    4563    4545    4560    4578       1
    4563    4545    4560    4581       1    4560    4578    4557    4575       1
    4560    4578    4593    4611       1    4557    4542    4554    4572       1
    4557    4578    4593    4611       1    4554    4542    4557    4575       1
    4554    4569    4590    4608       1    4551    4539    4548    4566       1
    4551    4539    4548    4569       1    4548    4566    4584    4605       1
    4548    4569    4554    4572       1    4548    4569    4590    4608       1
    4545    4536    4539    4551       1    4545    4560    4581    4599       1
    4542    4536    4539    4551       1    4542    4536    4545    4563       1
    4539    4536    4545    4563       1    4539    4548    4566    4587       1
    4536    4542    4554    4572       1    4536    4542    4557    4575       1
    4746    4734    4740    4749       1    4743    4731    4740    4749       1
    4737    4725    4734    4740       1    4737    4725    4734    4746       1
    4734    4740    4731    4743       1    4731    4740    4734    4746       1
    4725    4734    4740    4749       1    4722    4704    4725    4737       1
    4722    4731    4740    4749       1    4719    4701    4722    4731       1
    4716    4698    4710    4728       1    4713    4692    4710    4728       1
    4707    4689    4704    4722       1    4707    4689    4704    4725       1
    4704    4722    4701    4719       1    4704    4722    4731    4743       1
    4704    4725    4734    4746       1    4701    4722    4731    4743       1
    4698    4710    4692    4713       1    4695    4674    4692    4710       1
    4695    4674    4692    4713       1    4692    4710    4698    4716       1
    4689    4704    4725    4737       1    4686    4668    4689    4707       1
    4683    4665    4686    4701       1    4680    4662    4677    4698       1
    4677    4656    4674    4695       1    4677    4698    4710    4728       1
    4674    4692    4710    4728       1    4671    4653    4668    4686       1
    4671    4653    4668    4689       1    4668    4686    4665    4683       1
    4668    4686    4701    4719       1    4665    4650    4662    4680       1
    4665    4686    4701    4719       1    4662    4650    4665    4683       1
    4662    4677    4698    4716       1    4659    4647    4656    4674       1
    4659    4647    4656    4677       1    4656    4674    4692    4713       1
    4656    4677    4662    4680       1    4656    4677    4698    4716       1
    4653    4644    4647    4659       1    4653    4668    4689    4707       1
    4650    4644    4647    4659       1    4650    4644    4653    4671       1
    4647    4644    4653    4671       1    4647    4656    4674    4695       1
    4644    4650    4662    4680       1    4644    4650    4665    4683       1
    4854    4842    4848    4857       1    4851    4839    4848    4857       1
    4845    4833    4842    4848       1    4845    4833    4842    4854       1
    4842    4848    4839    4851       1    4839    4848    4842    4854       1
    4833    4842    4848    4857       1    4830    4812    4833    4845       1
    4830    4839    4848    4857       1    4827    4809    4830    4839       1
    4824    4806    4818    4836       1    4821    4800    4818    4836       1
    4815    4797    4812    4830       1    4815    4797    4812    4833       1
    4812    4830    4809    4827       1    4812    4830    4839    4851       1
    4812    4833    4842    4854       1    4809    4830    4839    4851       1
    4806    4818    4800    4821       1    4803    4782    4800    4818       1
    4803    4782    4800    4821       1    4800    4818    4806    4824       1
    4797    4812    4833    4845       1    4794    4776    4797    4815       1
    4791    4773    4794    4809       1    4788    4770    4785    4806       1
    4785    4764    4782    4803       1    4785    4806    4818    4836       1
    4782    4800    4818    4836       1    4779    4761    4776    4794       1
    4779    4761    4776    4797       1    4776    4794    4773    4791       1
    4776    4794    4809    4827       1    4773    4758    4770    4788       1
    4773    4794    4809    4827       1    4770    4758    4773    4791       1
    4770    4785    4806    4824       1    4767    4755    4764    4782       1
    4767    4755    4764    4785       1    4764    4782    4800    4821       1
    4764    4785    4770    4788       1    4764    4785    4806    4824       1
    4761    4752    4755    4767       1    4761    4776    4797    4815       1
    4758    4752    4755    4767       1    4758    4752    4761    4779       1
    4755    4752    4761    4779       1    4755    4764    4782    4803       1
    4752    4758    4770    4788       1    4752    4758    4773    4791       1
    4962    4950    4956    4965       1    4959    4947    4956    4965       1
    4953    4941    4950    4956       1    4953    4941    4950    4962       1
    4950    4956    4947    4959       1    4947    4956    4950    4962       1
    4941    4950    4956    4965       1    4938    4920    4941    4953       1
    4938    4947    4956    4965       1    4935    4917    4938    4947       1
    4932    4914    4926    4944       1    4929    4908    4926    4944       1
    4923    4905    4920    4938       1    4923    4905    4920    4941       1
    4920    4938    4917    4935       1    4920    4938    4947    4959       1
    4920    4941    4950    4962       1    4917    4938    4947    4959       1
    4914    4926    4908    4929       1    4911    4890    4908    4926       1
    4911    4890    4908    4929       1    4908    4926    4914    4932       1
    4905    4920    4941    4953       1    4902    4884    4905    4923       1
    4899    4881    4902    4917       1    4896    4878    4893    4914       1
    4893    4872    4890    4911       1    4893    4914    4926    4944       1
    4890    4908    4926    4944       1    4887    4869    4884    4902       1
    4887    4869    4884    4905       1    4884    4902    4881    4899       1
    4884    4902    4917    4935       1    4881    4866    4878    4896       1
    4881    4902    4917    4935       1    4878    4866    4881    4899       1
    4878    4893    4914    4932       1    4875    4863    4872    4890       1
    4875    4863    4872    4893       1    4872    4890    4908    4929       1
    4872    4893    4878    4896       1    4872    4893    4914    4932       1
    4869    4860    4863    4875       1    4869    4884    4905    4923       1
    4866    4860    4863    4875       1    4866    4860    4869    4887       1
    4863    4860    4869    4887       1    4863    4872    4890    4911       1
    4860    4866    4878    4896       1    4860    4866    4881    4899       1
    5070    5058    5064    5073       1    5067    5055    5064    5073       1
    5061    5049    5058    5064       1    5061    5049    5058    5070       1
    5058    5064    5055    5067       1    5055    5064    5058    5070       1
    5049    5058    5064    5073       1    5046    5028    5049    5061       1
    5046    5055    5064    5073       1    5043    5025    5046    5055       1
    5040    5022    5034    5052       1    5037    5016    5034    5052       1
    5031    5013    5028    5046       1    5031    5013    5028    5049       1
    5028    5046    5025    5043       1    5028    5046    5055    5067       1
    5028    5049    5058    5070       1    5025    5046    5055    5067       1
    5022    5034    5016    5037       1    5019    4998    5016    5034       1
    5019    4998    5016    5037       1    5016    5034    5022    5040       1
    5013    5028    5049    5061       1    5010    4992    5013    5031       1
    5007    4989    5010    5025       1    5004    4986    5001    5022       1
    5001    4980    4998    5019       1    5001    5022    5034    5052       1
    4998    5016    5034    5052       1    4995    4977    4992    5010       1
    4995    4977    4992    5013       1    4992    5010    4989    5007       1
    4992    5010    5025    5043       1    4989    4974    4986    5004       1
    4989    5010    5025    5043       1    4986    4974    4989    5007       1
    4986    5001    5022    5040       1    4983    4971    4980    4998       1
    4983    4971    4980    5001       1    4980    4998    5016    5037       1
    4980    5001    4986    5004       1    4980    5001    5022    5040       1
    4977    4968    4971    4983       1    4977    4992    5013    5031       1
    4974    4968    4971    4983       1    4974    4968    4977    4995       1
    4971    4968    4977    4995       1    4971    4980    4998    5019       1
    4968    4974    4986    5004       1    4968    4974    4989    5007       1
    5178    5166    5172    5181       1    5175    5163    5172    5181       1
    5169    5157    5166    5172       1    5169    5157    5166    5178       1
    5166    5172    5163    5175       1    5163    5172    5166    5178       1
    5157    5166    5172    5181       1    5154    5136    5157    5169       1
    5154    5163    5172    5181       1    5151    5133    5154    5163       1
    5148    5130    5142    5160       1    5145    5124    5142    5160       1
    5139    5121    5136    5154       1    5139    5121    5136    5157       1
    5136    5154    5133    5151       1    5136    5154    5163    5175       1
    5136    5157    5166    5178       1    5133    5154    5163    5175       1
    5130    5142    5124    5145       1    5127    5106    5124    5142       1
    5127    5106    5124    5145       1    5124    5142    5130    5148       1
    5121    5136    5157    5169       1    5118    5100    5121    5139       1
    5115    5097    5118    5133       1    5112    5094    5109    5130       1
    5109    5088    5106    5127       1    5109    5130    5142    5160       1
    5106    5124    5142    5160       1    5103    5085    5100    5118       1
    5103    5085    5100    5121       1    5100    5118    5097    5115       1
    5100    5118    5133    5151       1    5097    5082    5094    5112       1
    5097    5118    5133    5151       1    5094    5082    5097    5115       1
    5094    5109    5130    5148       1    5091    5079    5088    5106       1
    5091    5079    5088    5109       1    5088    5106    5124    5145       1
    5088    5109    5094    5112       1    5088    5109    5130    5148       1
    5085    5076    5079    5091       1    5085    5100    5121    5139       1
    5082    5076    5079    5091       1    5082    5076    5085    5103       1
    5079    5076    5085    5103       1    5079    5088    5106    5127       1
    5076    5082    5094    5112       1    5076    5082    5097    5115       1
    5286    5274    5280    5289       1    5283    5271    5280    5289       1
    5277    5265    5274    5280       1    5277    5265    5274    5286       1
    5274    5280    5271    5283       1    5271    5280    5274    5286       1
    5265    5274    5280    5289       1    5262    5244    5265    5277       1
    5262    5271    5280    5289       1    5259    5241    5262    5271       1
    5256    5238    5250    5268       1    5253    5232    5250    5268       1
    5247    5229    5244    5262       1    5247    5229    5244    5265       1
    5244    5262    5241    5259       1    5244    5262    5271    5283       1
    5244    5265    5274    5286       1    5241    5262    5271    5283       1
    5238    5250    5232    5253       1    5235    5214    5232    5250       1
    5235    5214    5232    5253       1    5232    5250    5238    5256       1
    5229    5244    5265    5277       1    5226    5208    5229    5247       1
    5223    5205    5226    5241       1    5220    5202    5217    5238       1
    5217    5196    5214    5235       1    5217    5238    5250    5268       1
    5214    5232    5250    5268       1    5211    5193    5208    5226       1
    5211    5193    5208    5229       1    5208    5226    5205    5223       1
    5208    5226    5241    5259       1    5205    5190    5202    5220       1
    5205    5226    5241    5259       1    5202    5190    5205    5223       1
    5202    5217    5238    5256       1    5199    5187    5196    5214       1
    5199    5187    5196    5217       1    5196    5214    5232    5253       1
    5196    5217    5202    5220       1    5196    5217    5238    5256       1
    5193    5184    5187    5199       1    5193    5208    5229    5247       1
    5190    5184    5187    5199       1    5190    5184    5193    5211       1
    5187    5184    5193    5211       1    5187    5196    5214    5235       1
    5184    5190    5202    5220       1    5184    5190    5205    5223       1
    5394    5382    5388    5397       1    5391    5379    5388    5397       1
    5385    5373    5382    5388       1    5385    5373    5382    5394       1
    5382    5388    5379    5391       1    5379    5388    5382    5394       1
    5373    5382    5388    5397       1    5370    5352    5373    5385       1
    5370    5379    5388    5397       1    5367    5349    5370    5379       1
    5364    5346    5358    5376       1    5361    5340    5358    5376       1
    5355    5337    5352    5370       1    5355    5337    5352    5373       1
    5352    5370    5349    5367       1    5352    5370    5379    5391       1
    5352    5373    5382    5394       1    5349    5370    5379    5391       1
    5346    5358    5340    5361       1    5343    5322    5340    5358       1
    5343    5322    5340    5361       1    5340    5358    5346    5364       1
    5337    5352    5373    5385       1    5334    5316    5337    5355       1
    5331    5313    5334    5349       1    5328    5310    5325    5346       1
    5325    5304    5322    5343       1    5325    5346    5358    5376       1
    5322    5340    5358    5376       1    5319    5301    5316    5334       1
    5319    5301    5316    5337       1    5316    5334    5313    5331       1
    5316    5334    5349    5367       1    5313    5298    5310    5328       1
    5313    5334    5349    5367       1    5310    5298    5313    5331       1
    5310    5325    5346    5364       1    5307    5295    5304    5322       1
    5307    5295    5304    5325       1    5304    5322    5340    5361       1
    5304    5325    5310    5328       1    5304    5325    5346    5364       1
    5301    5292    5295    5307       1    5301    5316    5337    5355       1
    5298    5292    5295    5307       1    5298    5292    5301    5319       1
    5295    5292    5301    5319       1    5295    5304    5322    5343       1
    5292    5298    5310    5328       1    5292    5298    5313    5331       1
    5502    5490    5496    5505       1    5499    5487    5496    5505       1
    5493    5481    5490    5496       1    5493    5481    5490    5502       1
    5490    5496    5487    5499       1    5487    5496    5490    5502       1
    5481    5490    5496    5505       1    5478    5460    5481    5493       1
    5478    5487    5496    5505       1    5475    5457    5478    5487       1
    5472    5454    5466    5484       1    5469    5448    5466    5484       1
    5463    5445    5460    5478       1    5463    5445    5460    5481       1
    5460    5478    5457    5475       1    5460    5478    5487    5499       1
    5460    5481    5490    5502       1    5457    5478    5487    5499       1
    5454    5466    5448    5469       1    5451    5430    5448    5466       1
    5451    5430    5448    5469       1    5448    5466    5454    5472       1
    5445    5460    5481    5493       1    5442    5424    5445    5463       1
    5439    5421    5442    5457       1    5436    5418    5433    5454       1
    5433    5412    5430    5451       1    5433    5454    5466    5484       1
    5430    5448    5466    5484       1    5427    5409    5424    5442       1
    5427    5409    5424    5445       1    5424    5442    5421    5439       1
    5424    5442    5457    5475       1    5421    5406    5418    5436       1
    5421    5442    5457    5475       1    5418    5406    5421    5439       1
    5418    5433    5454    5472       1    5415    5403    5412    5430       1
    5415    5403    5412    5433       1    5412    5430    5448    5469       1
    5412    5433    5418    5436       1    5412    5433    5454    5472       1
    5409    5400    5403    5415       1    5409    5424    5445    5463       1
    5406    5400    5403    5415       1    5406    5400    5409    5427       1
    5403    5400    5409    5427       1    5403    5412    5430    5451       1
    5400    5406    5418    5436       1    5400    5406    5421    5439       1
    5610    5598    5604    5613       1    5607    5595    5604    5613       1
    5601    5589    5598    5604       1    5601    5589    5598    5610       1
    5598    5604    5595    5607       1    5595    5604    5598    5610       1
    5589    5598    5604    5613       1    5586    5568    5589    5601       1
    5586    5595    5604    5613       1    5583    5565    5586    5595       1
    5580    5562    5574    5592       1    5577    5556    5574    5592       1
    5571    5553    5568    5586       1    5571    5553    5568    5589       1
    5568    5586    5565    5583       1    5568    5586    5595    5607       1
    5568    5589    5598    5610       1    5565    5586    5595    5607       1
    5562    5574    5556    5577       1    5559    5538    5556    5574       1
    5559    5538    5556    5577       1    5556    5574    5562    5580       1
    5553    5568    5589    5601       1    5550    5532    5553    5571       1
    5547    5529    5550    5565       1    5544    5526    5541    5562       1
    5541    5520    5538    5559       1    5541    5562    5574    5592       1
    5538    5556    5574    5592       1    5535    5517    5532    5550       1
    5535    5517    5532    5553       1    5532    5550    5529    5547       1
    5532    5550    5565    5583       1    5529    5514    5526    5544       1
    5529    5550    5565    5583       1    5526    5514    5529    5547       1
    5526    5541    5562    5580       1    5523    5511    5520    5538       1
    5523    5511    5520    5541       1    5520    5538    5556    5577       1
    5520    5541    5526    5544       1    5520    5541    5562    5580       1
    5517    5508    5511    5523       1    5517    5532    5553    5571       1
    5514    5508    5511    5523       1    5514    5508    5517    5535       1
    5511    5508    5517    5535       1    5511    5520    5538    5559       1
    5508    5514    5526    5544       1    5508    5514    5529    5547       1
    5718    5706    5712    5721       1    5715    5703    5712    5721       1
    5709    5697    5706    5712       1    5709    5697    5706    5718       1
    5706    5712    5703    5715       1    5703    5712    5706    5718       1
    5697    5706    5712    5721       1    5694    5676    5697    5709       1
    5694    5703    5712    5721       1    5691    5673    5694    5703       1
    5688    5670    5682    5700       1    5685    5664    5682    5700       1
    5679    5661    5676    5694       1    5679    5661    5676    5697       1
    5676    5694    5673    5691       1    5676    5694    5703    5715       1
    5676    5697    5706    5718       1    5673    5694    5703    5715       1
    5670    5682    5664    5685       1    5667    5646    5664    5682       1
    5667    5646    5664    5685       1    5664    5682    5670    5688       1
    5661    5676    5697    5709       1    5658    5640    5661    5679       1
    5655    5637    5658    5673       1    5652    5634    5649    5670       1
    5649    5628    5646    5667       1    5649    5670    5682    5700       1
    5646    5664    5682    5700       1    5643    5625    5640    5658       1
    5643    5625    5640    5661       1    5640    5658    5637    5655       1
    5640    5658    5673    5691       1    5637    5622    5634    5652       1
    5637    5658    5673    5691       1    5634    5622    5637    5655       1
    5634    5649    5670    5688       1    5631    5619    5628    5646       1
    5631    5619    5628    5649       1    5628    5646    5664    5685       1
    5628    5649    5634    5652       1    5628    5649    5670    5688       1
    5625    5616    5619    5631       1    5625    5640    5661    5679       1
    5622    5616    5619    5631       1    5622    5616    5625    5643       1
    5619    5616    5625    5643       1    5619    5628    5646    5667       1
    5616    5622    5634    5652       1    5616    5622    5637    5655       1
    5826    5814    5820    5829       1    5823    5811    5820    5829       1
    5817    5805    5814    5820       1    5817    5805    5814    5826       1
    5814    5820    5811    5823       1    5811    5820    5814    5826       1
    5805    5814    5820    5829       1    5802    5784    5805    5817       1
    5802    5811    5820    5829       1    5799    5781    5802    5811       1
    5796    5778    5790    5808       1    5793    5772    5790    5808       1
    5787    5769    5784    5802       1    5787    5769    5784    5805       1
    5784    5802    5781    5799       1    5784    5802    5811    5823       1
    5784    5805    5814    5826       1    5781    5802    5811    5823       1
    5778    5790    5772    5793       1    5775    5754    5772    5790       1
    5775    5754    5772    5793       1    5772    5790    5778    5796       1
    5769    5784    5805    5817       1    5766    5748    5769    5787       1
    5763    5745    5766    5781       1    5760    5742    5757    5778       1
    5757    5736    5754    5775       1    5757    5778    5790    5808       1
    5754    5772    5790    5808       1    5751    5733    5748    5766       1
    5751    5733    5748    5769       1    5748    5766    5745    5763       1
    5748    5766    5781    5799       1    5745    5730    5742    5760       1
    5745    5766    5781    5799       1    5742    5730    5745    5763       1
    5742    5757    5778    5796       1    5739    5727    5736    5754       1
    5739    5727    5736    5757       1    5736    5754    5772    5793       1
    5736    5757    5742    5760       1    5736    5757    5778    5796       1
    5733    5724    5727    5739       1    5733    5748    5769    5787       1
    5730    5724    5727    5739       1    5730    5724    5733    5751       1
    5727    5724    5733    5751       1    5727    5736    5754    5775       1
    5724    5730    5742    5760       1    5724    5730    5745    5763       1
    5934    5922    5928    5937       1    5931    5919    5928    5937       1
    5925    5913    5922    5928       1    5925    5913    5922    5934       1
    5922    5928    5919    5931       1    5919    5928    5922    5934       1
    5913    5922    5928    5937       1    5910    5892    5913    5925       1
    5910    5919    5928    5937       1    5907    5889    5910    5919       1
    5904    5886    5898    5916       1    5901    5880    5898    5916       1
    5895    5877    5892    5910       1    5895    5877    5892    5913       1
    5892    5910    5889    5907       1    5892    5910    5919    5931       1
    5892    5913    5922    5934       1    5889    5910    5919    5931       1
    5886    5898    5880    5901       1    5883    5862    5880    5898       1
    5883    5862    5880    5901       1    5880    5898    5886    5904       1
    5877    5892    5913    5925       1    5874    5856    5877    5895       1
    5871    5853    5874    5889       1    5868    5850    5865    5886       1
    5865    5844    5862    5883       1    5865    5886    5898    5916       1
    5862    5880    5898    5916       1    5859    5841    5856    5874       1
    5859    5841    5856    5877       1    5856    5874    5853    5871       1
    5856    5874    5889    5907       1    5853    5838    5850    5868       1
    5853    5874    5889    5907       1    5850    5838    5853    5871       1
    5850    5865    5886    5904       1    5847    5835    5844    5862       1
    5847    5835    5844    5865       1    5844    5862    5880    5901       1
    5844    5865    5850    5868       1    5844    5865    5886    5904       1
    5841    5832    5835    5847       1    5841    5856    5877    5895       1
    5838    5832    5835    5847       1    5838    5832    5841    5859       1
    5835    5832    5841    5859       1    5835    5844    5862    5883       1
    5832    5838    5850    5868       1    5832    5838    5853    5871       1
    6042    6030    6036    6045       1    6039    6027    6036    6045       1
    6033    6021    6030    6036       1    6033    6021    6030    6042       1
    6030    6036    6027    6039       1    6027    6036    6030    6042       1
    6021    6030    6036    6045       1    6018    6000    6021    6033       1
    6018    6027    6036    6045       1    6015    5997    6018    6027       1
    6012    5994    6006    6024       1    6009    5988    6006    6024       1
    6003    5985    6000    6018       1    6003    5985    6000    6021       1
    6000    6018    5997    6015       1    6000    6018    6027    6039       1
    6000    6021    6030    6042       1    5997    6018    6027    6039       1
    5994    6006    5988    6009       1    5991    5970    5988    6006       1
    5991    5970    5988    6009       1    5988    6006    5994    6012       1
    5985    6000    6021    6033       1    5982    5964    5985    6003       1
    5979    5961    5982    5997       1    5976    5958    5973    5994       1
    5973    5952    5970    5991       1    5973    5994    6006    6024       1
    5970    5988    6006    6024       1    5967    5949    5964    5982       1
    5967    5949    5964    5985       1    5964    5982    5961    5979       1
    5964    5982    5997    6015       1    5961    5946    5958    5976       1
    5961    5982    5997    6015       1    5958    5946    5961    5979       1
    5958    5973    5994    6012       1    5955    5943    5952    5970       1
    5955    5943    5952    5973       1    5952    5970    5988    6009       1
    5952    5973    5958    5976       1    5952    5973    5994    6012       1
    5949    5940    5943    5955       1    5949    5964    5985    6003       1
    5946    5940    5943    5955       1    5946    5940    5949    5967       1
    5943    5940    5949    5967       1    5943    5952    5970    5991       1
    5940    5946    5958    5976       1    5940    5946    5961    5979       1
    6150    6138    6144    6153       1    6147    6135    6144    6153       1
    6141    6129    6138    6144       1    6141    6129    6138    6150       1
    6138    6144    6135    6147       1    6135    6144    6138    6150       1
    6129    6138    6144    6153       1    6126    6108    6129    6141       1
    6126    6135    6144    6153       1    6123    6105    6126    6135       1
    6120    6102    6114    6132       1    6117    6096    6114    6132       1
    6111    6093    6108    6126       1    6111    6093    6108    6129       1
    6108    6126    6105    6123       1    6108    6126    6135    6147       1
    6108    6129    6138    6150       1    6105    6126    6135    6147       1
    6102    6114    6096    6117       1    6099    6078    6096    6114       1
    6099    6078    6096    6117       1    6096    6114    6102    6120       1
    6093    6108    6129    6141       1    6090    6072    6093    6111       1
    6087    6069    6090    6105       1    6084    6066    6081    6102       1
    6081    6060    6078    6099       1    6081    6102    6114    6132       1
    6078    6096    6114    6132       1    6075    6057    6072    6090       1
    6075    6057    6072    6093       1    6072    6090    6069    6087       1
    6072    6090    6105    6123       1    6069    6054    6066    6084       1
    6069    6090    6105    6123       1    6066    6054    6069    6087       1
    6066    6081    6102    6120       1    6063    6051    6060    6078       1
    6063    6051    6060    6081       1    6060    6078    6096    6117       1
    6060    6081    6066    6084       1    6060    6081    6102    6120       1
    6057    6048    6051    6063       1    6057    6072    6093    6111       1
    6054    6048    6051    6063       1    6054    6048    6057    6075       1
    6051    6048    6057    6075       1    6051    6060    6078    6099       1
    6048    6054    6066    6084       1    6048    6054    6069    6087       1
    6258    6246    6252    6261       1    6255    6243    6252    6261       1
    6249    6237    6246    6252       1    6249    6237    6246    6258       1
    6246    6252    6243    6255       1    6243    6252    6246    6258       1
    6237    6246    6252    6261       1    6234    6216    6237    6249       1
    6234    6243    6252    6261       1    6231    6213    6234    6243       1
    6228    6210    6222    6240       1    6225    6204    6222    6240       1
    6219    6201    6216    6234       1    6219    6201    6216    6237       1
    6216    6234    6213    6231       1    6216    6234    6243    6255       1
    6216    6237    6246    6258       1    6213    6234    6243    6255       1
    6210    6222    6204    6225       1    6207    6186    6204    6222       1
    6207    6186    6204    6225       1    6204    6222    6210    6228       1
    6201    6216    6237    6249       1    6198    6180    6201    6219       1
    6195    6177    6198    6213       1    6192    6174    6189    6210       1
    6189    6168    6186    6207       1    6189    6210    6222    6240       1
    6186    6204    6222    6240       1    6183    6165    6180    6198       1
    6183    6165    6180    6201       1    6180    6198    6177    6195       1
    6180    6198    6213    6231       1    6177    6162    6174    6192       1
    6177    6198    6213    6231       1    6174    6162    6177    6195       1
    6174    6189    6210    6228       1    6171    6159    6168    6186       1
    6171    6159    6168    6189       1    6168    6186    6204    6225       1
    6168    6189    6174    6192       1    6168    6189    6210    6228       1
    6165    6156    6159    6171       1    6165    6180    6201    6219       1
    6162    6156    6159    6171       1    6162    6156    6165    6183       1
    6159    6156    6165    6183       1    6159    6168    6186    6207       1
    6156    6162    6174    6192       1    6156    6162    6177    6195       1
    6366    6354    6360    6369       1    6363    6351    6360    6369       1
    6357    6345    6354    6360       1    6357    6345    6354    6366       1
    6354    6360    6351    6363       1    6351    6360    6354    6366       1
    6345    6354    6360    6369       1    6342    6324    6345    6357       1
    6342    6351    6360    6369       1    6339    6321    6342    6351       1
    6336    6318    6330    6348       1    6333    6312    6330    6348       1
    6327    6309    6324    6342       1    6327    6309    6324    6345       1
    6324    6342    6321    6339       1    6324    6342    6351    6363       1
    6324    6345    6354    6366       1    6321    6342    6351    6363       1
    6318    6330    6312    6333       1    6315    6294    6312    6330       1
    6315    6294    6312    6333       1    6312    6330    6318    6336       1
    6309    6324    6345    6357       1    6306    6288    6309    6327       1
    6303    6285    6306    6321       1    6300    6282    6297    6318       1
    6297    6276    6294    6315       1    6297    6318    6330    6348       1
    6294    6312    6330    6348       1    6291    6273    6288    6306       1
    6291    6273    6288    6309       1    6288    6306    6285    6303       1
    6288    6306    6321    6339       1    6285    6270    6282    6300       1
    6285    6306    6321    6339       1    6282    6270    6285    6303       1
    6282    6297    6318    6336       1    6279    6267    6276    6294       1
    6279    6267    6276    6297       1    6276    6294    6312    6333       1
    6276    6297    6282    6300       1    6276    6297    6318    6336       1
    6273    6264    6267    6279       1    6273    6288    6309    6327       1
    6270    6264    6267    6279       1    6270    6264    6273    6291       1
    6267    6264    6273    6291       1    6267    6276    6294    6315       1
    6264    6270    6282    6300       1    6264    6270    6285    6303       1
    6474    6462    6468    6477       1    6471    6459    6468    6477       1
    6465    6453    6462    6468       1    6465    6453    6462    6474       1
    6462    6468    6459    6471       1    6459    6468    6462    6474       1
    6453    6462    6468    6477       1    6450    6432    6453    6465       1
    6450    6459    6468    6477       1    6447    6429    6450    6459       1
    6444    6426    6438    6456       1    6441    6420    6438    6456       1
    6435    6417    6432    6450       1    6435    6417    6432    6453       1
    6432    6450    6429    6447       1    6432    6450    6459    6471       1
    6432    6453    6462    6474       1    6429    6450    6459    6471       1
    6426    6438    6420    6441       1    6423    6402    6420    6438       1
    6423    6402    6420    6441       1    6420    6438    6426    6444       1
    6417    6432    6453    6465       1    6414    6396    6417    6435       1
    6411    6393    6414    6429       1    6408    6390    6405    6426       1
    6405    6384    6402    6423       1    6405    6426    6438    6456       1
    6402    6420    6438    6456       1    6399    6381    6396    6414       1
    6399    6381    6396    6417       1    6396    6414    6393    6411       1
    6396    6414    6429    6447       1    6393    6378    6390    6408       1
    6393    6414    6429    6447       1    6390    6378    6393    6411       1
    6390    6405    6426    6444       1    6387    6375    6384    6402       1
    6387    6375    6384    6405       1    6384    6402    6420    6441       1
    6384    6405    6390    6408       1    6384    6405    6426    6444       1
    6381    6372    6375    6387       1    6381    6396    6417    6435       1
    6378    6372    6375    6387       1    6378    6372    6381    6399       1
    6375    6372    6381    6399       1    6375    6384    6402    6423       1
    6372    6378    6390    6408       1    6372    6378    6393    6411       1
    6582    6570    6576    6585       1    6579    6567    6576    6585       1
    6573    6561    6570    6576       1    6573    6561    6570    6582       1
    6570    6576    6567    6579       1    6567    6576    6570    6582       1
    6561    6570    6576    6585       1    6558    6540    6561    6573       1
    6558    6567    6576    6585       1    6555    6537    6558    6567       1
    6552    6534    6546    6564       1    6549    6528    6546    6564       1
    6543    6525    6540    6558       1    6543    6525    6540    6561       1
    6540    6558    6537    6555       1    6540    6558    6567    6579       1
    6540    6561    6570    6582       1    6537    6558    6567    6579       1
    6534    6546    6528    6549       1    6531    6510    6528    6546       1
    6531    6510    6528    6549       1    6528    6546    6534    6552       1
    6525    6540    6561    6573       1    6522    6504    6525    6543       1
    6519    6501    6522    6537       1    6516    6498    6513    6534       1
    6513    6492    6510    6531       1    6513    6534    6546    6564       1
    6510    6528    6546    6564       1    6507    6489    6504    6522       1
    6507    6489    6504    6525       1    6504    6522    6501    6519       1
    6504    6522    6537    6555       1    6501    6486    6498    6516       1
    6501    6522    6537    6555       1    6498    6486    6501    6519       1
    6498    6513    6534    6552       1    6495    6483    6492    6510       1
    6495    6483    6492    6513       1    6492    6510    6528    6549       1
    6492    6513    6498    6516       1    6492    6513    6534    6552       1
    6489    6480    6483    6495       1    6489    6504    6525    6543       1
    6486    6480    6483    6495       1    6486    6480    6489    6507       1
    6483    6480    6489    6507       1    6483    6492    6510    6531       1
    6480    6486    6498    6516       1    6480    6486    6501    6519       1
    6690    6678    6684    6693       1    6687    6675    6684    6693       1
    6681    6669    6678    6684       1    6681    6669    6678    6690       1
    6678    6684    6675    6687       1    6675    6684    6678    6690       1
    6669    6678    6684    6693       1    6666    6648    6669    6681       1
    6666    6675    6684    6693       1    6663    6645    6666    6675       1
    6660    6642    6654    6672       1    6657    6636    6654    6672       1
    6651    6633    6648    6666       1    6651    6633    6648    6669       1
    6648    6666    6645    6663       1    6648    6666    6675    6687       1
    6648    6669    6678    6690       1    6645    6666    6675    6687       1
    6642    6654    6636    6657       1    6639    6618    6636    6654       1
    6639    6618    6636    6657       1    6636    6654    6642    6660       1
    6633    6648    6669    6681       1    6630    6612    6633    6651       1
    6627    6609    6630    6645       1    6624    6606    6621    6642       1
    6621    6600    6618    6639       1    6621    6642    6654    6672       1
    6618    6636    6654    6672       1    6615    6597    6612    6630       1
    6615    6597    6612    6633       1    6612    6630    6609    6627       1
    6612    6630    6645    6663       1    6609    6594    6606    6624       1
    6609    6630    6645    6663       1    6606    6594    6609    6627       1
    6606    6621    6642    6660       1    6603    6591    6600    6618       1
    6603    6591    6600    6621       1    6600    6618    6636    6657       1
    6600    6621    6606    6624       1    6600    6621    6642    6660       1
    6597    6588    6591    6603       1    6597    6612    6633    6651       1
    6594    6588    6591    6603       1    6594    6588    6597    6615       1
    6591    6588    6597    6615       1    6591    6600    6618    6639       1
    6588    6594    6606    6624       1    6588    6594    6609    6627       1
    6798    6786    6792    6801       1    6795    6783    6792    6801       1
    6789    6777    6786    6792       1    6789    6777    6786    6798       1
    6786    6792    6783    6795       1    6783    6792    6786    6798       1
    6777    6786    6792    6801       1    6774    6756    6777    6789       1
    6774    6783    6792    6801       1    6771    6753    6774    6783       1
    6768    6750    6762    6780       1    6765    6744    6762    6780       1
    6759    6741    6756    6774       1    6759    6741    6756    6777       1
    6756    6774    6753    6771       1    6756    6774    6783    6795       1
    6756    6777    6786    6798       1    6753    6774    6783    6795       1
    6750    6762    6744    6765       1    6747    6726    6744    6762       1
    6747    6726    6744    6765       1    6744    6762    6750    6768       1
    6741    6756    6777    6789       1    6738    6720    6741    6759       1
    6735    6717    6738    6753       1    6732    6714    6729    6750       1
    6729    6708    6726    6747       1    6729    6750    6762    6780       1
    6726    6744    6762    6780       1    6723    6705    6720    6738       1
    6723    6705    6720    6741       1    6720    6738    6717    6735       1
    6720    6738    6753    6771       1    6717    6702    6714    6732       1
    6717    6738    6753    6771       1    6714    6702    6717    6735       1
    6714    6729    6750    6768       1    6711    6699    6708    6726       1
    6711    6699    6708    6729       1    6708    6726    6744    6765       1
    6708    6729    6714    6732       1    6708    6729    6750    6768       1
    6705    6696    6699    6711       1    6705    6720    6741    6759       1
    6702    6696    6699    6711       1    6702    6696    6705    6723       1
    6699    6696    6705    6723       1    6699    6708    6726    6747       1
    6696    6702    6714    6732       1    6696    6702    6717    6735       1
    6906    6894    6900    6909       1    6903    6891    6900    6909       1
    6897    6885    6894    6900       1    6897    6885    6894    6906       1
    6894    6900    6891    6903       1    6891    6900    6894    6906       1
    6885    6894    6900    6909       1    6882    6864    6885    6897       1
    6882    6891    6900    6909       1    6879    6861    6882    6891       1
    6876    6858    6870    6888       1    6873    6852    6870    6888       1
    6867    6849    6864    6882       1    6867    6849    6864    6885       1
    6864    6882    6861    6879       1    6864    6882    6891    6903       1
    6864    6885    6894    6906       1    6861    6882    6891    6903       1
    6858    6870    6852    6873       1    6855    6834    6852    6870       1
    6855    6834    6852    6873       1    6852    6870    6858    6876       1
    6849    6864    6885    6897       1    6846    6828    6849    6867       1
    6843    6825    6846    6861       1    6840    6822    6837    6858       1
    6837    6816    6834    6855       1    6837    6858    6870    6888       1
    6834    6852    6870    6888       1    6831    6813    6828    6846       1
    6831    6813    6828    6849       1    6828    6846    6825    6843       1
    6828    6846    6861    6879       1    6825    6810    6822    6840       1
    6825    6846    6861    6879       1    6822    6810    6825    6843       1
    6822    6837    6858    6876       1    6819    6807    6816    6834       1
    6819    6807    6816    6837       1    6816    6834    6852    6873       1
    6816    6837    6822    6840       1    6816    6837    6858    6876       1
    6813    6804    6807    6819       1    6813    6828    6849    6867       1
    6810    6804    6807    6819       1    6810    6804    6813    6831       1
    6807    6804    6813    6831       1    6807    6816    6834    6855       1
    6804    6810    6822    6840       1    6804    6810    6825    6843       1
    7014    7002    7008    7017       1    7011    6999    7008    7017       1
    7005    6993    7002    7008       1    7005    6993    7002    7014       1
    7002    7008    6999    7011       1    6999    7008    7002    7014       1
    6993    7002    7008    7017       1    6990    6972    6993    7005       1
    6990    6999    7008    7017       1    6987    6969    6990    6999       1
    6984    6966    6978    6996       1    6981    6960    6978    6996       1
    6975    6957    6972    6990       1    6975    6957    6972    6993       1
    6972    6990    6969    6987       1    6972    6990    6999    7011       1
    6972    6993    7002    7014       1    6969    6990    6999    7011       1
    6966    6978    6960    6981       1    6963    6942    6960    6978       1
    6963    6942    6960    6981       1    6960    6978    6966    6984       1
    6957    6972    6993    7005       1    6954    6936    6957    6975       1
    6951    6933    6954    6969       1    6948    6930    6945    6966       1
    6945    6924    6942    6963       1    6945    6966    6978    6996       1
    6942    6960    6978    6996       1    6939    6921    6936    6954       1
    6939    6921    6936    6957       1    6936    6954    6933    6951       1
    6936    6954    6969    6987       1    6933    6918    6930    6948       1
    6933    6954    6969    6987       1    6930    6918    6933    6951       1
    6930    6945    6966    6984       1    6927    6915    6924    6942       1
    6927    6915    6924    6945       1    6924    6942    6960    6981       1
    6924    6945    6930    6948       1    6924    6945    6966    6984       1
    6921    6912    6915    6927       1    6921    6936    6957    6975       1
    6918    6912    6915    6927       1    6918    6912    6921    6939       1
    6915    6912    6921    6939       1    6915    6924    6942    6963       1
    6912    6918    6930    6948       1    6912    6918    6933    6951       1
    7122    7110    7116    7125       1    7119    7107    7116    7125       1
    7113    7101    7110    7116       1    7113    7101    7110    7122       1
    7110    7116    7107    7119       1    7107    7116    7110    7122       1
    7101    7110    7116    7125       1    7098    7080    7101    7113       1
    7098    7107    7116    7125       1    7095    7077    7098    7107       1
    7092    7074    7086    7104       1    7089    7068    7086    7104       1
    7083    7065    7080    7098       1    7083    7065    7080    7101       1
    7080    7098    7077    7095       1    7080    7098    7107    7119       1
    7080    7101    7110    7122       1    7077    7098    7107    7119       1
    7074    7086    7068    7089       1    7071    7050    7068    7086       1
    7071    7050    7068    7089       1    7068    7086    7074    7092       1
    7065    7080    7101    7113       1    7062    7044    7065    7083       1
    7059    7041    7062    7077       1    7056    7038    7053    7074       1
    7053    7032    7050    7071       1    7053    7074    7086    7104       1
    7050    7068    7086    7104       1    7047    7029    7044    7062       1
    7047    7029    7044    7065       1    7044    7062    7041    7059       1
    7044    7062    7077    7095       1    7041    7026    7038    7056       1
    7041    7062    7077    7095       1    7038    7026    7041    7059       1
    7038    7053    7074    7092       1    7035    7023    7032    7050       1
    7035    7023    7032    7053       1    7032    7050    7068    7089       1
    7032    7053    7038    7056       1    7032    7053    7074    7092       1
    7029    7020    7023    7035       1    7029    7044    7065    7083       1
    7026    7020    7023    7035       1    7026    7020    7029    7047       1
    7023    7020    7029    7047       1    7023    7032    7050    7071       1
    7020    7026    7038    7056       1    7020    7026    7041    7059       1
    7230    7218    7224    7233       1    7227    7215    7224    7233       1
    7221    7209    7218    7224       1    7221    7209    7218    7230       1
    7218    7224    7215    7227       1    7215    7224    7218    7230       1
    7209    7218    7224    7233       1    7206    7188    7209    7221       1
    7206    7215    7224    7233       1    7203    7185    7206    7215       1
    7200    7182    7194    7212       1    7197    7176    7194    7212       1
    7191    7173    7188    7206       1    7191    7173    7188    7209       1
    7188    7206    7185    7203       1    7188    7206    7215    7227       1
    7188    7209    7218    7230       1    7185    7206    7215    7227       1
    7182    7194    7176    7197       1    7179    7158    7176    7194       1
    7179    7158    7176    7197       1    7176    7194    7182    7200       1
    7173    7188    7209    7221       1    7170    7152    7173    7191       1
    7167    7149    7170    7185       1    7164    7146    7161    7182       1
    7161    7140    7158    7179       1    7161    7182    7194    7212       1
    7158    7176    7194    7212       1    7155    7137    7152    7170       1
    7155    7137    7152    7173       1    7152    7170    7149    7167       1
    7152    7170    7185    7203       1    7149    7134    7146    7164       1
    7149    7170    7185    7203       1    7146    7134    7149    7167       1
    7146    7161    7182    7200       1    7143    7131    7140    7158       1
    7143    7131    7140    7161       1    7140    7158    7176    7197       1
    7140    7161    7146    7164       1    7140    7161    7182    7200       1
    7137    7128    7131    7143       1    7137    7152    7173    7191       1
    7134    7128    7131    7143       1    7134    7128    7137    7155       1
    7131    7128    7137    7155       1    7131    7140    7158    7179       1
    7128    7134    7146    7164       1    7128    7134    7149    7167       1
    7338    7326    7332    7341       1    7335    7323    7332    7341       1
    7329    7317    7326    7332       1    7329    7317    7326    7338       1
    7326    7332    7323    7335       1    7323    7332    7326    7338       1
    7317    7326    7332    7341       1    7314    7296    7317    7329       1
    7314    7323    7332    7341       1    7311    7293    7314    7323       1
    7308    7290    7302    7320       1    7305    7284    7302    7320       1
    7299    7281    7296    7314       1    7299    7281    7296    7317       1
    7296    7314    7293    7311       1    7296    7314    7323    7335       1
    7296    7317    7326    7338       1    7293    7314    7323    7335       1
    7290    7302    7284    7305       1    7287    7266    7284    7302       1
    7287    7266    7284    7305       1    7284    7302    7290    7308       1
    7281    7296    7317    7329       1    7278    7260    7281    7299       1
    7275    7257    7278    7293       1    7272    7254    7269    7290       1
    7269    7248    7266    7287       1    7269    7290    7302    7320       1
    7266    7284    7302    7320       1    7263    7245    7260    7278       1
    7263    7245    7260    7281       1    7260    7278    7257    7275       1
    7260    7278    7293    7311       1    7257    7242    7254    7272       1
    7257    7278    7293    7311       1    7254    7242    7257    7275       1
    7254    7269    7290    7308       1    7251    7239    7248    7266       1
    7251    7239    7248    7269       1    7248    7266    7284    7305       1
    7248    7269    7254    7272       1    7248    7269    7290    7308       1
    7245    7236    7239    7251       1    7245    7260    7281    7299       1
    7242    7236    7239    7251       1    7242    7236    7245    7263       1
    7239    7236    7245    7263       1    7239    7248    7266    7287       1
    7236    7242    7254    7272       1    7236    7242    7257    7275       1
    7446    7434    7440    7449       1    7443    7431    7440    7449       1
    7437    7425    7434    7440       1    7437    7425    7434    7446       1
    7434    7440    7431    7443       1    7431    7440    7434    7446       1
    7425    7434    7440    7449       1    7422    7404    7425    7437       1
    7422    7431    7440    7449       1    7419    7401    7422    7431       1
    7416    7398    7410    7428       1    7413    7392    7410    7428       1
    7407    7389    7404    7422       1    7407    7389    7404    7425       1
    7404    7422    7401    7419       1    7404    7422    7431    7443       1
    7404    7425    7434    7446       1    7401    7422    7431    7443       1
    7398    7410    7392    7413       1    7395    7374    7392    7410       1
    7395    7374    7392    7413       1    7392    7410    7398    7416       1
    7389    7404    7425    7437       1    7386    7368    7389    7407       1
    7383    7365    7386    7401       1    7380    7362    7377    7398       1
    7377    7356    7374    7395       1    7377    7398    7410    7428       1
    7374    7392    7410    7428       1    7371    7353    7368    7386       1
    7371    7353    7368    7389       1    7368    7386    7365    7383       1
    7368    7386    7401    7419       1    7365    7350    7362    7380       1
    7365    7386    7401    7419       1    7362    7350    7365    7383       1
    7362    7377    7398    7416       1    7359    7347    7356    7374       1
    7359    7347    7356    7377       1    7356    7374    7392    7413       1
    7356    7377    7362    7380       1    7356    7377    7398    7416       1
    7353    7344    7347    7359       1    7353    7368    7389    7407       1
    7350    7344    7347    7359       1    7350    7344    7353    7371       1
    7347    7344    7353    7371       1    7347    7356    7374    7395       1
    7344    7350    7362    7380       1    7344    7350    7365    7383       1
    7554    7542    7548    7557       1    7551    7539    7548    7557       1
    7545    7533    7542    7548       1    7545    7533    7542    7554       1
    7542    7548    7539    7551       1    7539    7548    7542    7554       1
    7533    7542    7548    7557       1    7530    7512    7533    7545       1
    7530    7539    7548    7557       1    7527    7509    7530    7539       1
    7524    7506    7518    7536       1    7521    7500    7518    7536       1
    7515    7497    7512    7530       1    7515    7497    7512    7533       1
    7512    7530    7509    7527       1    7512    7530    7539    7551       1
    7512    7533    7542    7554       1    7509    7530    7539    7551       1
    7506    7518    7500    7521       1    7503    7482    7500    7518       1
    7503    7482    7500    7521       1    7500    7518    7506    7524       1
    7497    7512    7533    7545       1    7494    7476    7497    7515       1
    7491    7473    7494    7509       1    7488    7470    7485    7506       1
    7485    7464    7482    7503       1    7485    7506    7518    7536       1
    7482    7500    7518    7536       1    7479    7461    7476    7494       1
    7479    7461    7476    7497       1    7476    7494    7473    7491       1
    7476    7494    7509    7527       1    7473    7458    7470    7488       1
    7473    7494    7509    7527       1    7470    7458    7473    7491       1
    7470    7485    7506    7524       1    7467    7455    7464    7482       1
    7467    7455    7464    7485       1    7464    7482    7500    7521       1
    7464    7485    7470    7488       1    7464    7485    7506    7524       1
    7461    7452    7455    7467       1    7461    7476    7497    7515       1
    7458    7452    7455    7467       1    7458    7452    7461    7479       1
    7455    7452    7461    7479       1    7455    7464    7482    7503       1
    7452    7458    7470    7488       1    7452    7458    7473    7491       1
    7662    7650    7656    7665       1    7659    7647    7656    7665       1
    7653    7641    7650    7656       1    7653    7641    7650    7662       1
    7650    7656    7647    7659       1    7647    7656    7650    7662       1
    7641    7650    7656    7665       1    7638    7620    7641    7653       1
    7638    7647    7656    7665       1    7635    7617    7638    7647       1
    7632    7614    7626    7644       1    7629    7608    7626    7644       1
    7623    7605    7620    7638       1    7623    7605    7620    7641       1
    7620    7638    7617    7635       1    7620    7638    7647    7659       1
    7620    7641    7650    7662       1    7617    7638    7647    7659       1
    7614    7626    7608    7629       1    7611    7590    7608    7626       1
    7611    7590    7608    7629       1    7608    7626    7614    7632       1
    7605    7620    7641    7653       1    7602    7584    7605    7623       1
    7599    7581    7602    7617       1    7596    7578    7593    7614       1
    7593    7572    7590    7611       1    7593    7614    7626    7644       1
    7590    7608    7626    7644       1    7587    7569    7584    7602       1
    7587    7569    7584    7605       1    7584    7602    7581    7599       1
    7584    7602    7617    7635       1    7581    7566    7578    7596       1
    7581    7602    7617    7635       1    7578    7566    7581    7599       1
    7578    7593    7614    7632       1    7575    7563    7572    7590       1
    7575    7563    7572    7593       1    7572    7590    7608    7629       1
    7572    7593    7578    7596       1    7572    7593    7614    7632       1
    7569    7560    7563    7575       1    7569    7584    7605    7623       1
    7566    7560    7563    7575       1    7566    7560    7569    7587       1
    7563    7560    7569    7587       1    7563    7572    7590    7611       1
    7560    7566    7578    7596       1    7560    7566    7581    7599       1
    7770    7758    7764    7773       1    7767    7755    7764    7773       1
    7761    7749    7758    7764       1    7761    7749    7758    7770       1
    7758    7764    7755    7767       1    7755    7764    7758    7770       1
    7749    7758    7764    7773       1    7746    7728    7749    7761       1
    7746    7755    7764    7773       1    7743    7725    7746    7755       1
    7740    7722    7734    7752       1    7737    7716    7734    7752       1
    7731    7713    7728    7746       1    7731    7713    7728    7749       1
    7728    7746    7725    7743       1    7728    7746    7755    7767       1
    7728    7749    7758    7770       1    7725    7746    7755    7767       1
    7722    7734    7716    7737       1    7719    7698    7716    7734       1
    7719    7698    7716    7737       1    7716    7734    7722    7740       1
    7713    7728    7749    7761       1    7710    7692    7713    7731       1
    7707    7689    7710    7725       1    7704    7686    7701    7722       1
    7701    7680    7698    7719       1    7701    7722    7734    7752       1
    7698    7716    7734    7752       1    7695    7677    7692    7710       1
    7695    7677    7692    7713       1    7692    7710    7689    7707       1
    7692    7710    7725    7743       1    7689    7674    7686    7704       1
    7689    7710    7725    7743       1    7686    7674    7689    7707       1
    7686    7701    7722    7740       1    7683    7671    7680    7698       1
    7683    7671    7680    7701       1    7680    7698    7716    7737       1
    7680    7701    7686    7704       1    7680    7701    7722    7740       1
    7677    7668    7671    7683       1    7677    7692    7713    7731       1
    7674    7668    7671    7683       1    7674    7668    7677    7695       1
    7671    7668    7677    7695       1    7671    7680    7698    7719       1
    7668    7674    7686    7704       1    7668    7674    7689    7707       1
    7878    7866    7872    7881       1    7875    7863    7872    7881       1
    7869    7857    7866    7872       1    7869    7857    7866    7878       1
    7866    7872    7863    7875       1    7863    7872    7866    7878       1
    7857    7866    7872    7881       1    7854    7836    7857    7869       1
    7854    7863    7872    7881       1    7851    7833    7854    7863       1
    7848    7830    7842    7860       1    7845    7824    7842    7860       1
    7839    7821    7836    7854       1    7839    7821    7836    7857       1
    7836    7854    7833    7851       1    7836    7854    7863    7875       1
    7836    7857    7866    7878       1    7833    7854    7863    7875       1
    7830    7842    7824    7845       1    7827    7806    7824    7842       1
    7827    7806    7824    7845       1    7824    7842    7830    7848       1
    7821    7836    7857    7869       1    7818    7800    7821    7839       1
    7815    7797    7818    7833       1    7812    7794    7809    7830       1
    7809    7788    7806    7827       1    7809    7830    7842    7860       1
    7806    7824    7842    7860       1    7803    7785    7800    7818       1
    7803    7785    7800    7821       1    7800    7818    7797    7815       1
    7800    7818    7833    7851       1    7797    7782    7794    7812       1
    7797    7818    7833    7851       1    7794    7782    7797    7815       1
    7794    7809    7830    7848       1    7791    7779    7788    7806       1
    7791    7779    7788    7809       1    7788    7806    7824    7845       1
    7788    7809    7794    7812       1    7788    7809    7830    7848       1
    7785    7776    7779    7791       1    7785    7800    7821    7839       1
    7782    7776    7779    7791       1    7782    7776    7785    7803       1
    7779    7776    7785    7803       1    7779    7788    7806    7827       1
    7776    7782    7794    7812       1    7776    7782    7797    7815       1
    7986    7974    7980    7989       1    7983    7971    7980    7989       1
    7977    7965    7974    7980       1    7977    7965    7974    7986       1
    7974    7980    7971    7983       1    7971    7980    7974    7986       1
    7965    7974    7980    7989       1    7962    7944    7965    7977       1
    7962    7971    7980    7989       1    7959    7941    7962    7971       1
    7956    7938    7950    7968       1    7953    7932    7950    7968       1
    7947    7929    7944    7962       1    7947    7929    7944    7965       1
    7944    7962    7941    7959       1    7944    7962    7971    7983       1
    7944    7965    7974    7986       1    7941    7962    7971    7983       1
    7938    7950    7932    7953       1    7935    7914    7932    7950       1
    7935    7914    7932    7953       1    7932    7950    7938    7956       1
    7929    7944    7965    7977       1    7926    7908    7929    7947       1
    7923    7905    7926    7941       1    7920    7902    7917    7938       1
    7917    7896    7914    7935       1    7917    7938    7950    7968       1
    7914    7932    7950    7968       1    7911    7893    7908    7926       1
    7911    7893    7908    7929       1    7908    7926    7905    7923       1
    7908    7926    7941    7959       1    7905    7890    7902    7920       1
    7905    7926    7941    7959       1    7902    7890    7905    7923       1
    7902    7917    7938    7956       1    7899    7887    7896    7914       1
    7899    7887    7896    7917       1    7896    7914    7932    7953       1
    7896    7917    7902    7920       1    7896    7917    7938    7956       1
    7893    7884    7887    7899       1    7893    7908    7929    7947       1
    7890    7884    7887    7899       1    7890    7884    7893    7911       1
    7887    7884    7893    7911       1    7887    7896    7914    7935       1
    7884    7890    7902    7920       1    7884    7890    7905    7923       1
    8094    8082    8088    8097       1    8091    8079    8088    8097       1
    8085    8073    8082    8088       1    8085    8073    8082    8094       1
    8082    8088    8079    8091       1    8079    8088    8082    8094       1
    8073    8082    8088    8097       1    8070    8052    8073    8085       1
    8070    8079    8088    8097       1    8067    8049    8070    8079       1
    8064    8046    8058    8076       1    8061    8040    8058    8076       1
    8055    8037    8052    8070       1    8055    8037    8052    8073       1
    8052    8070    8049    8067       1    8052    8070    8079    8091       1
    8052    8073    8082    8094       1    8049    8070    8079    8091       1
    8046    8058    8040    8061       1    8043    8022    8040    8058       1
    8043    8022    8040    8061       1    8040    8058    8046    8064       1
    8037    8052    8073    8085       1    8034    8016    8037    8055       1
    8031    8013    8034    8049       1    8028    8010    8025    8046       1
    8025    8004    8022    8043       1    8025    8046    8058    8076       1
    8022    8040    8058    8076       1    8019    8001    8016    8034       1
    8019    8001    8016    8037       1    8016    8034    8013    8031       1
    8016    8034    8049    8067       1    8013    7998    8010    8028       1
    8013    8034    8049    8067       1    8010    7998    8013    8031       1
    8010    8025    8046    8064       1    8007    7995    8004    8022       1
    8007    7995    8004    8025       1    8004    8022    8040    8061       1
    8004    8025    8010    8028       1    8004    8025    8046    8064       1
    8001    7992    7995    8007       1    8001    8016    8037    8055       1
    7998    7992    7995    8007       1    7998    7992    8001    8019       1
    7995    7992    8001    8019       1    7995    8004    8022    8043       1
    7992    7998    8010    8028       1    7992    7998    8013    8031       1
    8202    8190    8196    8205       1    8199    8187    8196    8205       1
    8193    8181    8190    8196       1    8193    8181    8190    8202       1
    8190    8196    8187    8199       1    8187    8196    8190    8202       1
    8181    8190    8196    8205       1    8178    8160    8181    8193       1
    8178    8187    8196    8205       1    8175    8157    8178    8187       1
    8172    8154    8166    8184       1    8169    8148    8166    8184       1
    8163    8145    8160    8178       1    8163    8145    8160    8181       1
    8160    8178    8157    8175       1    8160    8178    8187    8199       1
    8160    8181    8190    8202       1    8157    8178    8187    8199       1
    8154    8166    8148    8169       1    8151    8130    8148    8166       1
    8151    8130    8148    8169       1    8148    8166    8154    8172       1
    8145    8160    8181    8193       1    8142    8124    8145    8163       1
    8139    8121    8142    8157       1    8136    8118    8133    8154       1
    8133    8112    8130    8151       1    8133    8154    8166    8184       1
    8130    8148    8166    8184       1    8127    8109    8124    8142       1
    8127    8109    8124    8145       1    8124    8142    8121    8139       1
    8124    8142    8157    8175       1    8121    8106    8118    8136       1
    8121    8142    8157    8175       1    8118    8106    8121    8139       1
    8118    8133    8154    8172       1    8115    8103    8112    8130       1
    8115    8103    8112    8133       1    8112    8130    8148    8169       1
    8112    8133    8118    8136       1    8112    8133    8154    8172       1
    8109    8100    8103    8115       1    8109    8124    8145    8163       1
    8106    8100    8103    8115       1    8106    8100    8109    8127       1
    8103    8100    8109    8127       1    8103    8112    8130    8151       1
    8100    8106    8118    8136       1    8100    8106    8121    8139       1
    8310    8298    8304    8313       1    8307    8295    8304    8313       1
    8301    8289    8298    8304       1    8301    8289    8298    8310       1
    8298    8304    8295    8307       1    8295    8304    8298    8310       1
    8289    8298    8304    8313       1    8286    8268    8289    8301       1
    8286    8295    8304    8313       1    8283    8265    8286    8295       1
    8280    8262    8274    8292       1    8277    8256    8274    8292       1
    8271    8253    8268    8286       1    8271    8253    8268    8289       1
    8268    8286    8265    8283       1    8268    8286    8295    8307       1
    8268    8289    8298    8310       1    8265    8286    8295    8307       1
    8262    8274    8256    8277       1    8259    8238    8256    8274       1
    8259    8238    8256    8277       1    8256    8274    8262    8280       1
    8253    8268    8289    8301       1    8250    8232    8253    8271       1
    8247    8229    8250    8265       1    8244    8226    8241    8262       1
    8241    8220    8238    8259       1    8241    8262    8274    8292       1
    8238    8256    8274    8292       1    8235    8217    8232    8250       1
    8235    8217    8232    8253       1    8232    8250    8229    8247       1
    8232    8250    8265    8283       1    8229    8214    8226    8244       1
    8229    8250    8265    8283       1    8226    8214    8229    8247       1
    8226    8241    8262    8280       1    8223    8211    8220    8238       1
    8223    8211    8220    8241       1    8220    8238    8256    8277       1
    8220    8241    8226    8244       1    8220    8241    8262    8280       1
    8217    8208    8211    8223       1    8217    8232    8253    8271       1
    8214    8208    8211    8223       1    8214    8208    8217    8235       1
    8211    8208    8217    8235       1    8211    8220    8238    8259       1
    8208    8214    8226    8244       1    8208    8214    8229    8247       1
    8418    8406    8412    8421       1    8415    8403    8412    8421       1
    8409    8397    8406    8412       1    8409    8397    8406    8418       1
    8406    8412    8403    8415       1    8403    8412    8406    8418       1
    8397    8406    8412    8421       1    8394    8376    8397    8409       1
    8394    8403    8412    8421       1    8391    8373    8394    8403       1
    8388    8370    8382    8400       1    8385    8364    8382    8400       1
    8379    8361    8376    8394       1    8379    8361    8376    8397       1
    8376    8394    8373    8391       1    8376    8394    8403    8415       1
    8376    8397    8406    8418       1    8373    8394    8403    8415       1
    8370    8382    8364    8385       1    8367    8346    8364    8382       1
    8367    8346    8364    8385       1    8364    8382    8370    8388       1
    8361    8376    8397    8409       1    8358    8340    8361    8379       1
    8355    8337    8358    8373       1    8352    8334    8349    8370       1
    8349    8328    8346    8367       1    8349    8370    8382    8400       1
    8346    8364    8382    8400       1    8343    8325    8340    8358       1
    8343    8325    8340    8361       1    8340    8358    8337    8355       1
    8340    8358    8373    8391       1    8337    8322    8334    8352       1
    8337    8358    8373    8391       1    8334    8322    8337    8355       1
    8334    8349    8370    8388       1    8331    8319    8328    8346       1
    8331    8319    8328    8349       1    8328    8346    8364    8385       1
    8328    8349    8334    8352       1    8328    8349    8370    8388       1
    8325    8316    8319    8331       1    8325    8340    8361    8379       1
    8322    8316    8319    8331       1    8322    8316    8325    8343       1
    8319    8316    8325    8343       1    8319    8328    8346    8367       1
    8316    8322    8334    8352       1    8316    8322    8337    8355       1
    8526    8514    8520    8529       1    8523    8511    8520    8529       1
    8517    8505    8514    8520       1    8517    8505    8514    8526       1
    8514    8520    8511    8523       1    8511    8520    8514    8526       1
    8505    8514    8520    8529       1    8502    8484    8505    8517       1
    8502    8511    8520    8529       1    8499    8481    8502    8511       1
    8496    8478    8490    8508       1    8493    8472    8490    8508       1
    8487    8469    8484    8502       1    8487    8469    8484    8505       1
    8484    8502    8481    8499       1    8484    8502    8511    8523       1
    8484    8505    8514    8526       1    8481    8502    8511    8523       1
    8478    8490    8472    8493       1    8475    8454    8472    8490       1
    8475    8454    8472    8493       1    8472    8490    8478    8496       1
    8469    8484    8505    8517       1    8466    8448    8469    8487       1
    8463    8445    8466    8481       1    8460    8442    8457    8478       1
    8457    8436    8454    8475       1    8457    8478    8490    8508       1
    8454    8472    8490    8508       1    8451    8433    8448    8466       1
    8451    8433    8448    8469       1    8448    8466    8445    8463       1
    8448    8466    8481    8499       1    8445    8430    8442    8460       1
    8445    8466    8481    8499       1    8442    8430    8445    8463       1
    8442    8457    8478    8496       1    8439    8427    8436    8454       1
    8439    8427    8436    8457       1    8436    8454    8472    8493       1
    8436    8457    8442    8460       1    8436    8457    8478    8496       1
    8433    8424    8427    8439       1    8433    8448    8469    8487       1
    8430    8424    8427    8439       1    8430    8424    8433    8451       1
    8427    8424    8433    8451       1    8427    8436    8454    8475       1
    8424    8430    8442    8460       1    8424    8430    8445    8463       1
    8634    8622    8628    8637       1    8631    8619    8628    8637       1
    8625    8613    8622    8628       1    8625    8613    8622    8634       1
    8622    8628    8619    8631       1    8619    8628    8622    8634       1
    8613    8622    8628    8637       1    8610    8592    8613    8625       1
    8610    8619    8628    8637       1    8607    8589    8610    8619       1
    8604    8586    8598    8616       1    8601    8580    8598    8616       1
    8595    8577    8592    8610       1    8595    8577    8592    8613       1
    8592    8610    8589    8607       1    8592    8610    8619    8631       1
    8592    8613    8622    8634       1    8589    8610    8619    8631       1
    8586    8598    8580    8601       1    8583    8562    8580    8598       1
    8583    8562    8580    8601       1    8580    8598    8586    8604       1
    8577    8592    8613    8625       1    8574    8556    8577    8595       1
    8571    8553    8574    8589       1    8568    8550    8565    8586       1
    8565    8544    8562    8583       1    8565    8586    8598    8616       1
    8562    8580    8598    8616       1    8559    8541    8556    8574       1
    8559    8541    8556    8577       1    8556    8574    8553    8571       1
    8556    8574    8589    8607       1    8553    8538    8550    8568       1
    8553    8574    8589    8607       1    8550    8538    8553    8571       1
    8550    8565    8586    8604       1    8547    8535    8544    8562       1
    8547    8535    8544    8565       1    8544    8562    8580    8601       1
    8544    8565    8550    8568       1    8544    8565    8586    8604       1
    8541    8532    8535    8547       1    8541    8556    8577    8595       1
    8538    8532    8535    8547       1    8538    8532    8541    8559       1
    8535    8532    8541    8559       1    8535    8544    8562    8583       1
    8532    8538    8550    8568       1    8532    8538    8553    8571       1
    8742    8730    8736    8745       1    8739    8727    8736    8745       1
    8733    8721    8730    8736       1    8733    8721    8730    8742       1
    8730    8736    8727    8739       1    8727    8736    8730    8742       1
    8721    8730    8736    8745       1    8718    8700    8721    8733       1
    8718    8727    8736    8745       1    8715    8697    8718    8727       1
    8712    8694    8706    8724       1    8709    8688    8706    8724       1
    8703    8685    8700    8718       1    8703    8685    8700    8721       1
    8700    8718    8697    8715       1    8700    8718    8727    8739       1
    8700    8721    8730    8742       1    8697    8718    8727    8739       1
    8694    8706    8688    8709       1    8691    8670    8688    8706       1
    8691    8670    8688    8709       1    8688    8706    8694    8712       1
    8685    8700    8721    8733       1    8682    8664    8685    8703       1
    8679    8661    8682    8697       1    8676    8658    8673    8694       1
    8673    8652    8670    8691       1    8673    8694    8706    8724       1
    8670    8688    8706    8724       1    8667    8649    8664    8682       1
    8667    8649    8664    8685       1    8664    8682    8661    8679       1
    8664    8682    8697    8715       1    8661    8646    8658    8676       1
    8661    8682    8697    8715       1    8658    8646    8661    8679       1
    8658    8673    8694    8712       1    8655    8643    8652    8670       1
    8655    8643    8652    8673       1    8652    8670    8688    8709       1
    8652    8673    8658    8676       1    8652    8673    8694    8712       1
    8649    8640    8643    8655       1    8649    8664    8685    8703       1
    8646    8640    8643    8655       1    8646    8640    8649    8667       1
    8643    8640    8649    8667       1    8643    8652    8670    8691       1
    8640    8646    8658    8676       1    8640    8646    8661    8679       1
    8850    8838    8844    8853       1    8847    8835    8844    8853       1
    8841    8829    8838    8844       1    8841    8829    8838    8850       1
    8838    8844    8835    8847       1    8835    8844    8838    8850       1
    8829    8838    8844    8853       1    8826    8808    8829    8841       1
    8826    8835    8844    8853       1    8823    8805    8826    8835       1
    8820    8802    8814    8832       1    8817    8796    8814    8832       1
    8811    8793    8808    8826       1    8811    8793    8808    8829       1
    8808    8826    8805    8823       1    8808    8826    8835    8847       1
    8808    8829    8838    8850       1    8805    8826    8835    8847       1
    8802    8814    8796    8817       1    8799    8778    8796    8814       1
    8799    8778    8796    8817       1    8796    8814    8802    8820       1
    8793    8808    8829    8841       1    8790    8772    8793    8811       1
    8787    8769    8790    8805       1    8784    8766    8781    8802       1
    8781    8760    8778    8799       1    8781    8802    8814    8832       1
    8778    8796    8814    8832       1    8775    8757    8772    8790       1
    8775    8757    8772    8793       1    8772    8790    8769    8787       1
    8772    8790    8805    8823       1    8769    8754    8766    8784       1
    8769    8790    8805    8823       1    8766    8754    8769    8787       1
    8766    8781    8802    8820       1    8763    8751    8760    8778       1
    8763    8751    8760    8781       1    8760    8778    8796    8817       1
    8760    8781    8766    8784       1    8760    8781    8802    8820       1
    8757    8748    8751    8763       1    8757    8772    8793    8811       1
    8754    8748    8751    8763       1    8754    8748    8757    8775       1
    8751    8748    8757    8775       1    8751    8760    8778    8799       1
    8748    8754    8766    8784       1    8748    8754    8769    8787       1
    8958    8946    8952    8961       1    8955    8943    8952    8961       1
    8949    8937    8946    8952       1    8949    8937    8946    8958       1
    8946    8952    8943    8955       1    8943    8952    8946    8958       1
    8937    8946    8952    8961       1    8934    8916    8937    8949       1
    8934    8943    8952    8961       1    8931    8913    8934    8943       1
    8928    8910    8922    8940       1    8925    8904    8922    8940       1
    8919    8901    8916    8934       1    8919    8901    8916    8937       1
    8916    8934    8913    8931       1    8916    8934    8943    8955       1
    8916    8937    8946    8958       1    8913    8934    8943    8955       1
    8910    8922    8904    8925       1    8907    8886    8904    8922       1
    8907    8886    8904    8925       1    8904    8922    8910    8928       1
    8901    8916    8937    8949       1    8898    8880    8901    8919       1
    8895    8877    8898    8913       1    8892    8874    8889    8910       1
    8889    8868    8886    8907       1    8889    8910    8922    8940       1
    8886    8904    8922    8940       1    8883    8865    8880    8898       1
    8883    8865    8880    8901       1    8880    8898    8877    8895       1
    8880    8898    8913    8931       1    8877    8862    8874    8892       1
    8877    8898    8913    8931       1    8874    8862    8877    8895       1
    8874    8889    8910    8928       1    8871    8859    8868    8886       1
    8871    8859    8868    8889       1    8868    8886    8904    8925       1
    8868    8889    8874    8892       1    8868    8889    8910    8928       1
    8865    8856    8859    8871       1    8865    8880    8901    8919       1
    8862    8856    8859    8871       1    8862    8856    8865    8883       1
    8859    8856    8865    8883       1    8859    8868    8886    8907       1
    8856    8862    8874    8892       1    8856    8862    8877    8895       1
    9066    9054    9060    9069       1    9063    9051    9060    9069       1
    9057    9045    9054    9060       1    9057    9045    9054    9066       1
    9054    9060    9051    9063       1    9051    9060    9054    9066       1
    9045    9054    9060    9069       1    9042    9024    9045    9057       1
    9042    9051    9060    9069       1    9039    9021    9042    9051       1
    9036    9018    9030    9048       1    9033    9012    9030    9048       1
    9027    9009    9024    9042       1    9027    9009    9024    9045       1
    9024    9042    9021    9039       1    9024    9042    9051    9063       1
    9024    9045    9054    9066       1    9021    9042    9051    9063       1
    9018    9030    9012    9033       1    9015    8994    9012    9030       1
    9015    8994    9012    9033       1    9012    9030    9018    9036       1
    9009    9024    9045    9057       1    9006    8988    9009    9027       1
    9003    8985    9006    9021       1    9000    8982    8997    9018       1
    8997    8976    8994    9015       1    8997    9018    9030    9048       1
    8994    9012    9030    9048       1    8991    8973    8988    9006       1
    8991    8973    8988    9009       1    8988    9006    8985    9003       1
    8988    9006    9021    9039       1    8985    8970    8982    9000       1
    8985    9006    9021    9039       1    8982    8970    8985    9003       1
    8982    8997    9018    9036       1    8979    8967    8976    8994       1
    8979    8967    8976    8997       1    8976    8994    9012    9033       1
    8976    8997    8982    9000       1    8976    8997    9018    9036       1
    8973    8964    8967    8979       1    8973    8988    9009    9027       1
    8970    8964    8967    8979       1    8970    8964    8973    8991       1
    8967    8964    8973    8991       1    8967    8976    8994    9015       1
    8964    8970    8982    9000       1    8964    8970    8985    9003       1
    9174    9162    9168    9177       1    9171    9159    9168    9177       1
    9165    9153    9162    9168       1    9165    9153    9162    9174       1
    9162    9168    9159    9171       1    9159    9168    9162    9174       1
    9153    9162    9168    9177       1    9150    9132    9153    9165       1
    9150    9159    9168    9177       1    9147    9129    9150    9159       1
    9144    9126    9138    9156       1    9141    9120    9138    9156       1
    9135    9117    9132    9150       1    9135    9117    9132    9153       1
    9132    9150    9129    9147       1    9132    9150    9159    9171       1
    9132    9153    9162    9174       1    9129    9150    9159    9171       1
    9126    9138    9120    9141       1    9123    9102    9120    9138       1
    9123    9102    9120    9141       1    9120    9138    9126    9144       1
    9117    9132    9153    9165       1    9114    9096    9117    9135       1
    9111    9093    9114    9129       1    9108    9090    9105    9126       1
    9105    9084    9102    9123       1    9105    9126    9138    9156       1
    9102    9120    9138    9156       1    9099    9081    9096    9114       1
    9099    9081    9096    9117       1    9096    9114    9093    9111       1
    9096    9114    9129    9147       1    9093    9078    9090    9108       1
    9093    9114    9129    9147       1    9090    9078    9093    9111       1
    9090    9105    9126    9144       1    9087    9075    9084    9102       1
    9087    9075    9084    9105       1    9084    9102    9120    9141       1
    9084    9105    9090    9108       1    9084    9105    9126    9144       1
    9081    9072    9075    9087       1    9081    9096    9117    9135       1
    9078    9072    9075    9087       1    9078    9072    9081    9099       1
    9075    9072    9081    9099       1    9075    9084    9102    9123       1
    9072    9078    9090    9108       1    9072    9078    9093    9111       1
    9282    9270    9276    9285       1    9279    9267    9276    9285       1
    9273    9261    9270    9276       1    9273    9261    9270    9282       1
    9270    9276    9267    9279       1    9267    9276    9270    9282       1
    9261    9270    9276    9285       1    9258    9240    9261    9273       1
    9258    9267    9276    9285       1    9255    9237    9258    9267       1
    9252    9234    9246    9264       1    9249    9228    9246    9264       1
    9243    9225    9240    9258       1    9243    9225    9240    9261       1
    9240    9258    9237    9255       1    9240    9258    9267    9279       1
    9240    9261    9270    9282       1    9237    9258    9267    9279       1
    9234    9246    9228    9249       1    9231    9210    9228    9246       1
    9231    9210    9228    9249       1    9228    9246    9234    9252       1
    9225    9240    9261    9273       1    9222    9204    9225    9243       1
    9219    9201    9222    9237       1    9216    9198    9213    9234       1
    9213    9192    9210    9231       1    9213    9234    9246    9264       1
    9210    9228    9246    9264       1    9207    9189    9204    9222       1
    9207    9189    9204    9225       1    9204    9222    9201    9219       1
    9204    9222    9237    9255       1    9201    9186    9198    9216       1
    9201    9222    9237    9255       1    9198    9186    9201    9219       1
    9198    9213    9234    9252       1    9195    9183    9192    9210       1
    9195    9183    9192    9213       1    9192    9210    9228    9249       1
    9192    9213    9198    9216       1    9192    9213    9234    9252       1
    9189    9180    9183    9195       1    9189    9204    9225    9243       1
    9186    9180    9183    9195       1    9186    9180    9189    9207       1
    9183    9180    9189    9207       1    9183    9192    9210    9231       1
    9180    9186    9198    9216       1    9180    9186    9201    9219       1
    9390    9378    9384    9393       1    9387    9375    9384    9393       1
    9381    9369    9378    9384       1    9381    9369    9378    9390       1
    9378    9384    9375    9387       1    9375    9384    9378    9390       1
    9369    9378    9384    9393       1    9366    9348    9369    9381       1
    9366    9375    9384    9393       1    9363    9345    9366    9375       1
    9360    9342    9354    9372       1    9357    9336    9354    9372       1
    9351    9333    9348    9366       1    9351    9333    9348    9369       1
    9348    9366    9345    9363       1    9348    9366    9375    9387       1
    9348    9369    9378    9390       1    9345    9366    9375    9387       1
    9342    9354    9336    9357       1    9339    9318    9336    9354       1
    9339    9318    9336    9357       1    9336    9354    9342    9360       1
    9333    9348    9369    9381       1    9330    9312    9333    9351       1
    9327    9309    9330    9345       1    9324    9306    9321    9342       1
    9321    9300    9318    9339       1    9321    9342    9354    9372       1
    9318    9336    9354    9372       1    9315    9297    9312    9330       1
    9315    9297    9312    9333       1    9312    9330    9309    9327       1
    9312    9330    9345    9363       1    9309    9294    9306    9324       1
    9309    9330    9345    9363       1    9306    9294    9309    9327       1
    9306    9321    9342    9360       1    9303    9291    9300    9318       1
    9303    9291    9300    9321       1    9300    9318    9336    9357       1
    9300    9321    9306    9324       1    9300    9321    9342    9360       1
    9297    9288    9291    9303       1    9297    9312    9333    9351       1
    9294    9288    9291    9303       1    9294    9288    9297    9315       1
    9291    9288    9297    9315       1    9291    9300    9318    9339       1
    9288    9294    9306    9324       1    9288    9294    9309    9327       1
    9498    9486    9492    9501       1    9495    9483    9492    9501       1
    9489    9477    9486    9492       1    9489    9477    9486    9498       1
    9486    9492    9483    9495       1    9483    9492    9486    9498       1
    9477    9486    9492    9501       1    9474    9456    9477    9489       1
    9474    9483    9492    9501       1    9471    9453    9474    9483       1
    9468    9450    9462    9480       1    9465    9444    9462    9480       1
    9459    9441    9456    9474       1    9459    9441    9456    9477       1
    9456    9474    9453    9471       1    9456    9474    9483    9495       1
    9456    9477    9486    9498       1    9453    9474    9483    9495       1
    9450    9462    9444    9465       1    9447    9426    9444    9462       1
    9447    9426    9444    9465       1    9444    9462    9450    9468       1
    9441    9456    9477    9489       1    9438    9420    9441    9459       1
    9435    9417    9438    9453       1    9432    9414    9429    9450       1
    9429    9408    9426    9447       1    9429    9450    9462    9480       1
    9426    9444    9462    9480       1    9423    9405    9420    9438       1
    9423    9405    9420    9441       1    9420    9438    9417    9435       1
    9420    9438    9453    9471       1    9417    9402    9414    9432       1
    9417    9438    9453    9471       1    9414    9402    9417    9435       1
    9414    9429    9450    9468       1    9411    9399    9408    9426       1
    9411    9399    9408    9429       1    9408    9426    9444    9465       1
    9408    9429    9414    9432       1    9408    9429    9450    9468       1
    9405    9396    9399    9411       1    9405    9420    9441    9459       1
    9402    9396    9399    9411       1    9402    9396    9405    9423       1
    9399    9396    9405    9423       1    9399    9408    9426    9447       1
    9396    9402    9414    9432       1    9396    9402    9417    9435       1
    9606    9594    9600    9609       1    9603    9591    9600    9609       1
    9597    9585    9594    9600       1    9597    9585    9594    9606       1
    9594    9600    9591    9603       1    9591    9600    9594    9606       1
    9585    9594    9600    9609       1    9582    9564    9585    9597       1
    9582    9591    9600    9609       1    9579    9561    9582    9591       1
    9576    9558    9570    9588       1    9573    9552    9570    9588       1
    9567    9549    9564    9582       1    9567    9549    9564    9585       1
    9564    9582    9561    9579       1    9564    9582    9591    9603       1
    9564    9585    9594    9606       1    9561    9582    9591    9603       1
    9558    9570    9552    9573       1    9555    9534    9552    9570       1
    9555    9534    9552    9573       1    9552    9570    9558    9576       1
    9549    9564    9585    9597       1    9546    9528    9549    9567       1
    9543    9525    9546    9561       1    9540    9522    9537    9558       1
    9537    9516    9534    9555       1    9537    9558    9570    9588       1
    9534    9552    9570    9588       1    9531    9513    9528    9546       1
    9531    9513    9528    9549       1    9528    9546    9525    9543       1
    9528    9546    9561    9579       1    9525    9510    9522    9540       1
    9525    9546    9561    9579       1    9522    9510    9525    9543       1
    9522    9537    9558    9576       1    9519    9507    9516    9534       1
    9519    9507    9516    9537       1    9516    9534    9552    9573       1
    9516    9537    9522    9540       1    9516    9537    9558    9576       1
    9513    9504    9507    9519       1    9513    9528    9549    9567       1
    9510    9504    9507    9519       1    9510    9504    9513    9531       1
    9507    9504    9513    9531       1    9507    9516    9534    9555       1
    9504    9510    9522    9540       1    9504    9510    9525    9543       1
    9714    9702    9708    9717       1    9711    9699    9708    9717       1
    9705    9693    9702    9708       1    9705    9693    9702    9714       1
    9702    9708    9699    9711       1    9699    9708    9702    9714       1
    9693    9702    9708    9717       1    9690    9672    9693    9705       1
    9690    9699    9708    9717       1    9687    9669    9690    9699       1
    9684    9666    9678    9696       1    9681    9660    9678    9696       1
    9675    9657    9672    9690       1    9675    9657    9672    9693       1
    9672    9690    9669    9687       1    9672    9690    9699    9711       1
    9672    9693    9702    9714       1    9669    9690    9699    9711       1
    9666    9678    9660    9681       1    9663    9642    9660    9678       1
    9663    9642    9660    9681       1    9660    9678    9666    9684       1
    9657    9672    9693    9705       1    9654    9636    9657    9675       1
    9651    9633    9654    9669       1    9648    9630    9645    9666       1
    9645    9624    9642    9663       1    9645    9666    9678    9696       1
    9642    9660    9678    9696       1    9639    9621    9636    9654       1
    9639    9621    9636    9657       1    9636    9654    9633    9651       1
    9636    9654    9669    9687       1    9633    9618    9630    9648       1
    9633    9654    9669    9687       1    9630    9618    9633    9651       1
    9630    9645    9666    9684       1    9627    9615    9624    9642       1
    9627    9615    9624    9645       1    9624    9642    9660    9681       1
    9624    9645    9630    9648       1    9624    9645    9666    9684       1
    9621    9612    9615    9627       1    9621    9636    9657    9675       1
    9618    9612    9615    9627       1    9618    9612    9621    9639       1
    9615    9612    9621    9639       1    9615    9624    9642    9663       1
    9612    9618    9630    9648       1    9612    9618    9633    9651       1
    9822    9810    9816    9825       1    9819    9807    9816    9825       1
    9813    9801    9810    9816       1    9813    9801    9810    9822       1
    9810    9816    9807    9819       1    9807    9816    9810    9822       1
    9801    9810    9816    9825       1    9798    9780    9801    9813       1
    9798    9807    9816    9825       1    9795    9777    9798    9807       1
    9792    9774    9786    9804       1    9789    9768    9786    9804       1
    9783    9765    9780    9798       1    9783    9765    9780    9801       1
    9780    9798    9777    9795       1    9780    9798    9807    9819       1
    9780    9801    9810    9822       1    9777    9798    9807    9819       1
    9774    9786    9768    9789       1    9771    9750    9768    9786       1
    9771    9750    9768    9789       1    9768    9786    9774    9792       1
    9765    9780    9801    9813       1    9762    9744    9765    9783       1
    9759    9741    9762    9777       1    9756    9738    9753    9774       1
    9753    9732    9750    9771       1    9753    9774    9786    9804       1
    9750    9768    9786    9804       1    9747    9729    9744    9762       1
    9747    9729    9744    9765       1    9744    9762    9741    9759       1
    9744    9762    9777    9795       1    9741    9726    9738    9756       1
    9741    9762    9777    9795       1    9738    9726    9741    9759       1
    9738    9753    9774    9792       1    9735    9723    9732    9750       1
    9735    9723    9732    9753       1    9732    9750    9768    9789       1
    9732    9753    9738    9756       1    9732    9753    9774    9792       1
    9729    9720    9723    9735       1    9729    9744    9765    9783       1
    9726    9720    9723    9735       1    9726    9720    9729    9747       1
    9723    9720    9729    9747       1    9723    9732    9750    9771       1
    9720    9726    9738    9756       1    9720    9726    9741    9759       1
    9930    9918    9924    9933       1    9927    9915    9924    9933       1
    9921    9909    9918    9924       1    9921    9909    9918    9930       1
    9918    9924    9915    9927       1    9915    9924    9918    9930       1
    9909    9918    9924    9933       1    9906    9888    9909    9921       1
    9906    9915    9924    9933       1    9903    9885    9906    9915       1
    9900    9882    9894    9912       1    9897    9876    9894    9912       1
    9891    9873    9888    9906       1    9891    9873    9888    9909       1
    9888    9906    9885    9903       1    9888    9906    9915    9927       1
    9888    9909    9918    9930       1    9885    9906    9915    9927       1
    9882    9894    9876    9897       1    9879    9858    9876    9894       1
    9879    9858    9876    9897       1    9876    9894    9882    9900       1
    9873    9888    9909    9921       1    9870    9852    9873    9891       1
    9867    9849    9870    9885       1    9864    9846    9861    9882       1
    9861    9840    9858    9879       1    9861    9882    9894    9912       1
    9858    9876    9894    9912       1    9855    9837    9852    9870       1
    9855    9837    9852    9873       1    9852    9870    9849    9867       1
    9852    9870    9885    9903       1    9849    9834    9846    9864       1
    9849    9870    9885    9903       1    9846    9834    9849    9867       1
    9846    9861    9882    9900       1    9843    9831    9840    9858       1
    9843    9831    9840    9861       1    9840    9858    9876    9897       1
    9840    9861    9846    9864       1    9840    9861    9882    9900       1
    9837    9828    9831    9843       1    9837    9852    9873    9891       1
    9834    9828    9831    9843       1    9834    9828    9837    9855       1
    9831    9828    9837    9855       1    9831    9840    9858    9879       1
    9828    9834    9846    9864       1    9828    9834    9849    9867       1
   10038   10026   10032   10041       1   10035   10023   10032   10041       1
   10029   10017   10026   10032       1   10029   10017   10026   10038       1
   10026   10032   10023   10035       1   10023   10032   10026   10038       1
   10017   10026   10032   10041       1   10014    9996   10017   10029       1
   10014   10023   10032   10041       1   10011    9993   10014   10023       1
   10008    9990   10002   10020       1   10005    9984   10002   10020       1
    9999    9981    9996   10014       1    9999    9981    9996   10017       1
    9996   10014    9993   10011       1    9996   10014   10023   10035       1
    9996   10017   10026   10038       1    9993   10014   10023   10035       1
    9990   10002    9984   10005       1    9987    9966    9984   10002       1
    9987    9966    9984   10005       1    9984   10002    9990   10008       1
    9981    9996   10017   10029       1    9978    9960    9981    9999       1
    9975    9957    9978    9993       1    9972    9954    9969    9990       1
    9969    9948    9966    9987       1    9969    9990   10002   10020       1
    9966    9984   10002   10020       1    9963    9945    9960    9978       1
    9963    9945    9960    9981       1    9960    9978    9957    9975       1
    9960    9978    9993   10011       1    9957    9942    9954    9972       1
    9957    9978    9993   10011       1    9954    9942    9957    9975       1
    9954    9969    9990   10008       1    9951    9939    9948    9966       1
    9951    9939    9948    9969       1    9948    9966    9984   10005       1
    9948    9969    9954    9972       1    9948    9969    9990   10008       1
    9945    9936    9939    9951       1    9945    9960    9981    9999       1
    9942    9936    9939    9951       1    9942    9936    9945    9963       1
    9939    9936    9945    9963       1    9939    9948    9966    9987       1
    9936    9942    9954    9972       1    9936    9942    9957    9975       1
   10146   10134   10140   10149       1   10143   10131   10140   10149       1
   10137   10125   10134   10140       1   10137   10125   10134   10146       1
   10134   10140   10131   10143       1   10131   10140   10134   10146       1
   10125   10134   10140   10149       1   10122   10104   10125   10137       1
   10122   10131   10140   10149       1   10119   10101   10122   10131       1
   10116   10098   10110   10128       1   10113   10092   10110   10128       1
   10107   10089   10104   10122       1   10107   10089   10104   10125       1
   10104   10122   10101   10119       1   10104   10122   10131   10143       1
   10104   10125   10134   10146       1   10101   10122   10131   10143       1
   10098   10110   10092   10113       1   10095   10074   10092   10110       1
   10095   10074   10092   10113       1   10092   10110   10098   10116       1
   10089   10104   10125   10137       1   10086   10068   10089   10107       1
   10083   10065   10086   10101       1   10080   10062   10077   10098       1
   10077   10056   10074   10095       1   10077   10098   10110   10128       1
   10074   10092   10110   10128       1   10071   10053   10068   10086       1
   10071   10053   10068   10089       1   10068   10086   10065   10083       1
   10068   10086   10101   10119       1   10065   10050   10062   10080       1
   10065   10086   10101   10119       1   10062   10050   10065   10083       1
   10062   10077   10098   10116       1   10059   10047   10056   10074       1
   10059   10047   10056   10077       1   10056   10074   10092   10113       1
   10056   10077   10062   10080       1   10056   10077   10098   10116       1
   10053   10044   10047   10059       1   10053   10068   10089   10107       1
   10050   10044   10047   10059       1   10050   10044   10053   10071       1
   10047   10044   10053   10071       1   10047   10056   10074   10095       1
   10044   10050   10062   10080       1   10044   10050   10065   10083       1
   10254   10242   10248   10257       1   10251   10239   10248   10257       1
   10245   10233   10242   10248       1   10245   10233   10242   10254       1
   10242   10248   10239   10251       1   10239   10248   10242   10254       1
   10233   10242   10248   10257       1   10230   10212   10233   10245       1
   10230   10239   10248   10257       1   10227   10209   10230   10239       1
   10224   10206   10218   10236       1   10221   10200   10218   10236       1
   10215   10197   10212   10230       1   10215   10197   10212   10233       1
   10212   10230   10209   10227       1   10212   10230   10239   10251       1
   10212   10233   10242   10254       1   10209   10230   10239   10251       1
   10206   10218   10200   10221       1   10203   10182   10200   10218       1
   10203   10182   10200   10221       1   10200   10218   10206   10224       1
   10197   10212   10233   10245       1   10194   10176   10197   10215       1
   10191   10173   10194   10209       1   10188   10170   10185   10206       1
   10185   10164   10182   10203       1   10185   10206   10218   10236       1
   10182   10200   10218   10236       1   10179   10161   10176   10194       1
   10179   10161   10176   10197       1   10176   10194   10173   10191       1
   10176   10194   10209   10227       1   10173   10158   10170   10188       1
   10173   10194   10209   10227       1   10170   10158   10173   10191       1
   10170   10185   10206   10224       1   10167   10155   10164   10182       1
   10167   10155   10164   10185       1   10164   10182   10200   10221       1
   10164   10185   10170   10188       1   10164   10185   10206   10224       1
   10161   10152   10155   10167       1   10161   10176   10197   10215       1
   10158   10152   10155   10167       1   10158   10152   10161   10179       1
   10155   10152   10161   10179       1   10155   10164   10182   10203       1
   10152   10158   10170   10188       1   10152   10158   10173   10191       1
   10362   10350   10356   10365       1   10359   10347   10356   10365       1
   10353   10341   10350   10356       1   10353   10341   10350   10362       1
   10350   10356   10347   10359       1   10347   10356   10350   10362       1
   10341   10350   10356   10365       1   10338   10320   10341   10353       1
   10338   10347   10356   10365       1   10335   10317   10338   10347       1
   10332   10314   10326   10344       1   10329   10308   10326   10344       1
   10323   10305   10320   10338       1   10323   10305   10320   10341       1
   10320   10338   10317   10335       1   10320   10338   10347   10359       1
   10320   10341   10350   10362       1   10317   10338   10347   10359       1
   10314   10326   10308   10329       1   10311   10290   10308   10326       1
   10311   10290   10308   10329       1   10308   10326   10314   10332       1
   10305   10320   10341   10353       1   10302   10284   10305   10323       1
   10299   10281   10302   10317       1   10296   10278   10293   10314       1
   10293   10272   10290   10311       1   10293   10314   10326   10344       1
   10290   10308   10326   10344       1   10287   10269   10284   10302       1
   10287   10269   10284   10305       1   10284   10302   10281   10299       1
   10284   10302   10317   10335       1   10281   10266   10278   10296       1
   10281   10302   10317   10335       1   10278   10266   10281   10299       1
   10278   10293   10314   10332       1   10275   10263   10272   10290       1
   10275   10263   10272   10293       1   10272   10290   10308   10329       1
   10272   10293   10278   10296       1   10272   10293   10314   10332       1
   10269   10260   10263   10275       1   10269   10284   10305   10323       1
   10266   10260   10263   10275       1   10266   10260   10269   10287       1
   10263   10260   10269   10287       1   10263   10272   10290   10311       1
   10260   10266   10278   10296       1   10260   10266   10281   10299       1
   10470   10458   10464   10473       1   10467   10455   10464   10473       1
   10461   10449   10458   10464       1   10461   10449   10458   10470       1
   10458   10464   10455   10467       1   10455   10464   10458   10470       1
   10449   10458   10464   10473       1   10446   10428   10449   10461       1
   10446   10455   10464   10473       1   10443   10425   10446   10455       1
   10440   10422   10434   10452       1   10437   10416   10434   10452       1
   10431   10413   10428   10446       1   10431   10413   10428   10449       1
   10428   10446   10425   10443       1   10428   10446   10455   10467       1
   10428   10449   10458   10470       1   10425   10446   10455   10467       1
   10422   10434   10416   10437       1   10419   10398   10416   10434       1
   10419   10398   10416   10437       1   10416   10434   10422   10440       1
   10413   10428   10449   10461       1   10410   10392   10413   10431       1
   10407   10389   10410   10425       1   10404   10386   10401   10422       1
   10401   10380   10398   10419       1   10401   10422   10434   10452       1
   10398   10416   10434   10452       1   10395   10377   10392   10410       1
   10395   10377   10392   10413       1   10392   10410   10389   10407       1
   10392   10410   10425   10443       1   10389   10374   10386   10404       1
   10389   10410   10425   10443       1   10386   10374   10389   10407       1
   10386   10401   10422   10440       1   10383   10371   10380   10398       1
   10383   10371   10380   10401       1   10380   10398   10416   10437       1
   10380   10401   10386   10404       1   10380   10401   10422   10440       1
   10377   10368   10371   10383       1   10377   10392   10413   10431       1
   10374   10368   10371   10383       1   10374   10368   10377   10395       1
   10371   10368   10377   10395       1   10371   10380   10398   10419       1
   10368   10374   10386   10404       1   10368   10374   10389   10407       1
   10578   10566   10572   10581       1   10575   10563   10572   10581       1
   10569   10557   10566   10572       1   10569   10557   10566   10578       1
   10566   10572   10563   10575       1   10563   10572   10566   10578       1
   10557   10566   10572   10581       1   10554   10536   10557   10569       1
   10554   10563   10572   10581       1   10551   10533   10554   10563       1
   10548   10530   10542   10560       1   10545   10524   10542   10560       1
   10539   10521   10536   10554       1   10539   10521   10536   10557       1
   10536   10554   10533   10551       1   10536   10554   10563   10575       1
   10536   10557   10566   10578       1   10533   10554   10563   10575       1
   10530   10542   10524   10545       1   10527   10506   10524   10542       1
   10527   10506   10524   10545       1   10524   10542   10530   10548       1
   10521   10536   10557   10569       1   10518   10500   10521   10539       1
   10515   10497   10518   10533       1   10512   10494   10509   10530       1
   10509   10488   10506   10527       1   10509   10530   10542   10560       1
   10506   10524   10542   10560       1   10503   10485   10500   10518       1
   10503   10485   10500   10521       1   10500   10518   10497   10515       1
   10500   10518   10533   10551       1   10497   10482   10494   10512       1
   10497   10518   10533   10551       1   10494   10482   10497   10515       1
   10494   10509   10530   10548       1   10491   10479   10488   10506       1
   10491   10479   10488   10509       1   10488   10506   10524   10545       1
   10488   10509   10494   10512       1   10488   10509   10530   10548       1
   10485   10476   10479   10491       1   10485   10500   10521   10539       1
   10482   10476   10479   10491       1   10482   10476   10485   10503       1
   10479   10476   10485   10503       1   10479   10488   10506   10527       1
   10476   10482   10494   10512       1   10476   10482   10497   10515       1
   10686   10674   10680   10689       1   10683   10671   10680   10689       1
   10677   10665   10674   10680       1   10677   10665   10674   10686       1
   10674   10680   10671   10683       1   10671   10680   10674   10686       1
   10665   10674   10680   10689       1   10662   10644   10665   10677       1
   10662   10671   10680   10689       1   10659   10641   10662   10671       1
   10656   10638   10650   10668       1   10653   10632   10650   10668       1
   10647   10629   10644   10662       1   10647   10629   10644   10665       1
   10644   10662   10641   10659       1   10644   10662   10671   10683       1
   10644   10665   10674   10686       1   10641   10662   10671   10683       1
   10638   10650   10632   10653       1   10635   10614   10632   10650       1
   10635   10614   10632   10653       1   10632   10650   10638   10656       1
   10629   10644   10665   10677       1   10626   10608   10629   10647       1
   10623   10605   10626   10641       1   10620   10602   10617   10638       1
   10617   10596   10614   10635       1   10617   10638   10650   10668       1
   10614   10632   10650   10668       1   10611   10593   10608   10626       1
   10611   10593   10608   10629       1   10608   10626   10605   10623       1
   10608   10626   10641   10659       1   10605   10590   10602   10620       1
   10605   10626   10641   10659       1   10602   10590   10605   10623       1
   10602   10617   10638   10656       1   10599   10587   10596   10614       1
   10599   10587   10596   10617       1   10596   10614   10632   10653       1
   10596   10617   10602   10620       1   10596   10617   10638   10656       1
   10593   10584   10587   10599       1   10593   10608   10629   10647       1
   10590   10584   10587   10599       1   10590   10584   10593   10611       1
   10587   10584   10593   10611       1   10587   10596   10614   10635       1
   10584   10590   10602   10620       1   10584   10590   10605   10623       1
   10794   10782   10788   10797       1   10791   10779   10788   10797       1
   10785   10773   10782   10788       1   10785   10773   10782   10794       1
   10782   10788   10779   10791       1   10779   10788   10782   10794       1
   10773   10782   10788   10797       1   10770   10752   10773   10785       1
   10770   10779   10788   10797       1   10767   10749   10770   10779       1
   10764   10746   10758   10776       1   10761   10740   10758   10776       1
   10755   10737   10752   10770       1   10755   10737   10752   10773       1
   10752   10770   10749   10767       1   10752   10770   10779   10791       1
   10752   10773   10782   10794       1   10749   10770   10779   10791       1
   10746   10758   10740   10761       1   10743   10722   10740   10758       1
   10743   10722   10740   10761       1   10740   10758   10746   10764       1
   10737   10752   10773   10785       1   10734   10716   10737   10755       1
   10731   10713   10734   10749       1   10728   10710   10725   10746       1
   10725   10704   10722   10743       1   10725   10746   10758   10776       1
   10722   10740   10758   10776       1   10719   10701   10716   10734       1
   10719   10701   10716   10737       1   10716   10734   10713   10731       1
   10716   10734   10749   10767       1   10713   10698   10710   10728       1
   10713   10734   10749   10767       1   10710   10698   10713   10731       1
   10710   10725   10746   10764       1   10707   10695   10704   10722       1
   10707   10695   10704   10725       1   10704   10722   10740   10761       1
   10704   10725   10710   10728       1   10704   10725   10746   10764       1
   10701   10692   10695   10707       1   10701   10716   10737   10755       1
   10698   10692   10695   10707       1   10698   10692   10701   10719       1
   10695   10692   10701   10719       1   10695   10704   10722   10743       1
   10692   10698   10710   10728       1   10692   10698   10713   10731       1
   10902   10890   10896   10905       1   10899   10887   10896   10905       1
   10893   10881   10890   10896       1   10893   10881   10890   10902       1
   10890   10896   10887   10899       1   10887   10896   10890   10902       1
   10881   10890   10896   10905       1   10878   10860   10881   10893       1
   10878   10887   10896   10905       1   10875   10857   10878   10887       1
   10872   10854   10866   10884       1   10869   10848   10866   10884       1
   10863   10845   10860   10878       1   10863   10845   10860   10881       1
   10860   10878   10857   10875       1   10860   10878   10887   10899       1
   10860   10881   10890   10902       1   10857   10878   10887   10899       1
   10854   10866   10848   10869       1   10851   10830   10848   10866       1
   10851   10830   10848   10869       1   10848   10866   10854   10872       1
   10845   10860   10881   10893       1   10842   10824   10845   10863       1
   10839   10821   10842   10857       1   10836   10818   10833   10854       1
   10833   10812   10830   10851       1   10833   10854   10866   10884       1
   10830   10848   10866   10884       1   10827   10809   10824   10842       1
   10827   10809   10824   10845       1   10824   10842   10821   10839       1
   10824   10842   10857   10875       1   10821   10806   10818   10836       1
   10821   10842   10857   10875       1   10818   10806   10821   10839       1
   10818   10833   10854   10872       1   10815   10803   10812   10830       1
   10815   10803   10812   10833       1   10812   10830   10848   10869       1
   10812   10833   10818   10836       1   10812   10833   10854   10872       1
   10809   10800   10803   10815       1   10809   10824   10845   10863       1
   10806   10800   10803   10815       1   10806   10800   10809   10827       1
   10803   10800   10809   10827       1   10803   10812   10830   10851       1
   10800   10806   10818   10836       1   10800   10806   10821   10839       1
   11010   10998   11004   11013       1   11007   10995   11004   11013       1
   11001   10989   10998   11004       1   11001   10989   10998   11010       1
   10998   11004   10995   11007       1   10995   11004   10998   11010       1
   10989   10998   11004   11013       1   10986   10968   10989   11001       1
   10986   10995   11004   11013       1   10983   10965   10986   10995       1
   10980   10962   10974   10992       1   10977   10956   10974   10992       1
   10971   10953   10968   10986       1   10971   10953   10968   10989       1
   10968   10986   10965   10983       1   10968   10986   10995   11007       1
   10968   10989   10998   11010       1   10965   10986   10995   11007       1
   10962   10974   10956   10977       1   10959   10938   10956   10974       1
   10959   10938   10956   10977       1   10956   10974   10962   10980       1
   10953   10968   10989   11001       1   10950   10932   10953   10971       1
   10947   10929   10950   10965       1   10944   10926   10941   10962       1
   10941   10920   10938   10959       1   10941   10962   10974   10992       1
   10938   10956   10974   10992       1   10935   10917   10932   10950       1
   10935   10917   10932   10953       1   10932   10950   10929   10947       1
   10932   10950   10965   10983       1   10929   10914   10926   10944       1
   10929   10950   10965   10983       1   10926   10914   10929   10947       1
   10926   10941   10962   10980       1   10923   10911   10920   10938       1
   10923   10911   10920   10941       1   10920   10938   10956   10977       1
   10920   10941   10926   10944       1   10920   10941   10962   10980       1
   10917   10908   10911   10923       1   10917   10932   10953   10971       1
   10914   10908   10911   10923       1   10914   10908   10917   10935       1
   10911   10908   10917   10935       1   10911   10920   10938   10959       1
   10908   10914   10926   10944       1   10908   10914   10929   10947       1
   11118   11106   11112   11121       1   11115   11103   11112   11121       1
   11109   11097   11106   11112       1   11109   11097   11106   11118       1
   11106   11112   11103   11115       1   11103   11112   11106   11118       1
   11097   11106   11112   11121       1   11094   11076   11097   11109       1
   11094   11103   11112   11121       1   11091   11073   11094   11103       1
   11088   11070   11082   11100       1   11085   11064   11082   11100       1
   11079   11061   11076   11094       1   11079   11061   11076   11097       1
   11076   11094   11073   11091       1   11076   11094   11103   11115       1
   11076   11097   11106   11118       1   11073   11094   11103   11115       1
   11070   11082   11064   11085       1   11067   11046   11064   11082       1
   11067   11046   11064   11085       1   11064   11082   11070   11088       1
   11061   11076   11097   11109       1   11058   11040   11061   11079       1
   11055   11037   11058   11073       1   11052   11034   11049   11070       1
   11049   11028   11046   11067       1   11049   11070   11082   11100       1
   11046   11064   11082   11100       1   11043   11025   11040   11058       1
   11043   11025   11040   11061       1   11040   11058   11037   11055       1
   11040   11058   11073   11091       1   11037   11022   11034   11052       1
   11037   11058   11073   11091       1   11034   11022   11037   11055       1
   11034   11049   11070   11088       1   11031   11019   11028   11046       1
   11031   11019   11028   11049       1   11028   11046   11064   11085       1
   11028   11049   11034   11052       1   11028   11049   11070   11088       1
   11025   11016   11019   11031       1   11025   11040   11061   11079       1
   11022   11016   11019   11031       1   11022   11016   11025   11043       1
   11019   11016   11025   11043       1   11019   11028   11046   11067       1
   11016   11022   11034   11052       1   11016   11022   11037   11055       1
   11226   11214   11220   11229       1   11223   11211   11220   11229       1
   11217   11205   11214   11220       1   11217   11205   11214   11226       1
   11214   11220   11211   11223       1   11211   11220   11214   11226       1
   11205   11214   11220   11229       1   11202   11184   11205   11217       1
   11202   11211   11220   11229       1   11199   11181   11202   11211       1
   11196   11178   11190   11208       1   11193   11172   11190   11208       1
   11187   11169   11184   11202       1   11187   11169   11184   11205       1
   11184   11202   11181   11199       1   11184   11202   11211   11223       1
   11184   11205   11214   11226       1   11181   11202   11211   11223       1
   11178   11190   11172   11193       1   11175   11154   11172   11190       1
   11175   11154   11172   11193       1   11172   11190   11178   11196       1
   11169   11184   11205   11217       1   11166   11148   11169   11187       1
   11163   11145   11166   11181       1   11160   11142   11157   11178       1
   11157   11136   11154   11175       1   11157   11178   11190   11208       1
   11154   11172   11190   11208       1   11151   11133   11148   11166       1
   11151   11133   11148   11169       1   11148   11166   11145   11163       1
   11148   11166   11181   11199       1   11145   11130   11142   11160       1
   11145   11166   11181   11199       1   11142   11130   11145   11163       1
   11142   11157   11178   11196       1   11139   11127   11136   11154       1
   11139   11127   11136   11157       1   11136   11154   11172   11193       1
   11136   11157   11142   11160       1   11136   11157   11178   11196       1
   11133   11124   11127   11139       1   11133   11148   11169   11187       1
   11130   11124   11127   11139       1   11130   11124   11133   11151       1
   11127   11124   11133   11151       1   11127   11136   11154   11175       1
   11124   11130   11142   11160       1   11124   11130   11145   11163       1
   11334   11322   11328   11337       1   11331   11319   11328   11337       1
   11325   11313   11322   11328       1   11325   11313   11322   11334       1
   11322   11328   11319   11331       1   11319   11328   11322   11334       1
   11313   11322   11328   11337       1   11310   11292   11313   11325       1
   11310   11319   11328   11337       1   11307   11289   11310   11319       1
   11304   11286   11298   11316       1   11301   11280   11298   11316       1
   11295   11277   11292   11310       1   11295   11277   11292   11313       1
   11292   11310   11289   11307       1   11292   11310   11319   11331       1
   11292   11313   11322   11334       1   11289   11310   11319   11331       1
   11286   11298   11280   11301       1   11283   11262   11280   11298       1
   11283   11262   11280   11301       1   11280   11298   11286   11304       1
   11277   11292   11313   11325       1   11274   11256   11277   11295       1
   11271   11253   11274   11289       1   11268   11250   11265   11286       1
   11265   11244   11262   11283       1   11265   11286   11298   11316       1
   11262   11280   11298   11316       1   11259   11241   11256   11274       1
   11259   11241   11256   11277       1   11256   11274   11253   11271       1
   11256   11274   11289   11307       1   11253   11238   11250   11268       1
   11253   11274   11289   11307       1   11250   11238   11253   11271       1
   11250   11265   11286   11304       1   11247   11235   11244   11262       1
   11247   11235   11244   11265       1   11244   11262   11280   11301       1
   11244   11265   11250   11268       1   11244   11265   11286   11304       1
   11241   11232   11235   11247       1   11241   11256   11277   11295       1
   11238   11232   11235   11247       1   11238   11232   11241   11259       1
   11235   11232   11241   11259       1   11235   11244   11262   11283       1
   11232   11238   11250   11268       1   11232   11238   11253   11271       1
   11442   11430   11436   11445       1   11439   11427   11436   11445       1
   11433   11421   11430   11436       1   11433   11421   11430   11442       1
   11430   11436   11427   11439       1   11427   11436   11430   11442       1
   11421   11430   11436   11445       1   11418   11400   11421   11433       1
   11418   11427   11436   11445       1   11415   11397   11418   11427       1
   11412   11394   11406   11424       1   11409   11388   11406   11424       1
   11403   11385   11400   11418       1   11403   11385   11400   11421       1
   11400   11418   11397   11415       1   11400   11418   11427   11439       1
   11400   11421   11430   11442       1   11397   11418   11427   11439       1
   11394   11406   11388   11409       1   11391   11370   11388   11406       1
   11391   11370   11388   11409       1   11388   11406   11394   11412       1
   11385   11400   11421   11433       1   11382   11364   11385   11403       1
   11379   11361   11382   11397       1   11376   11358   11373   11394       1
   11373   11352   11370   11391       1   11373   11394   11406   11424       1
   11370   11388   11406   11424       1   11367   11349   11364   11382       1
   11367   11349   11364   11385       1   11364   11382   11361   11379       1
   11364   11382   11397   11415       1   11361   11346   11358   11376       1
   11361   11382   11397   11415       1   11358   11346   11361   11379       1
   11358   11373   11394   11412       1   11355   11343   11352   11370       1
   11355   11343   11352   11373       1   11352   11370   11388   11409       1
   11352   11373   11358   11376       1   11352   11373   11394   11412       1
   11349   11340   11343   11355       1   11349   11364   11385   11403       1
   11346   11340   11343   11355       1   11346   11340   11349   11367       1
   11343   11340   11349   11367       1   11343   11352   11370   11391       1
   11340   11346   11358   11376       1   11340   11346   11361   11379       1
   11550   11538   11544   11553       1   11547   11535   11544   11553       1
   11541   11529   11538   11544       1   11541   11529   11538   11550       1
   11538   11544   11535   11547       1   11535   11544   11538   11550       1
   11529   11538   11544   11553       1   11526   11508   11529   11541       1
   11526   11535   11544   11553       1   11523   11505   11526   11535       1
   11520   11502   11514   11532       1   11517   11496   11514   11532       1
   11511   11493   11508   11526       1   11511   11493   11508   11529       1
   11508   11526   11505   11523       1   11508   11526   11535   11547       1
   11508   11529   11538   11550       1   11505   11526   11535   11547       1
   11502   11514   11496   11517       1   11499   11478   11496   11514       1
   11499   11478   11496   11517       1   11496   11514   11502   11520       1
   11493   11508   11529   11541       1   11490   11472   11493   11511       1
   11487   11469   11490   11505       1   11484   11466   11481   11502       1
   11481   11460   11478   11499       1   11481   11502   11514   11532       1
   11478   11496   11514   11532       1   11475   11457   11472   11490       1
   11475   11457   11472   11493       1   11472   11490   11469   11487       1
   11472   11490   11505   11523       1   11469   11454   11466   11484       1
   11469   11490   11505   11523       1   11466   11454   11469   11487       1
   11466   11481   11502   11520       1   11463   11451   11460   11478       1
   11463   11451   11460   11481       1   11460   11478   11496   11517       1
   11460   11481   11466   11484       1   11460   11481   11502   11520       1
   11457   11448   11451   11463       1   11457   11472   11493   11511       1
   11454   11448   11451   11463       1   11454   11448   11457   11475       1
   11451   11448   11457   11475       1   11451   11460   11478   11499       1
   11448   11454   11466   11484       1   11448   11454   11469   11487       1
   11658   11646   11652   11661       1   11655   11643   11652   11661       1
   11649   11637   11646   11652       1   11649   11637   11646   11658       1
   11646   11652   11643   11655       1   11643   11652   11646   11658       1
   11637   11646   11652   11661       1   11634   11616   11637   11649       1
   11634   11643   11652   11661       1   11631   11613   11634   11643       1
   11628   11610   11622   11640       1   11625   11604   11622   11640       1
   11619   11601   11616   11634       1   11619   11601   11616   11637       1
   11616   11634   11613   11631       1   11616   11634   11643   11655       1
   11616   11637   11646   11658       1   11613   11634   11643   11655       1
   11610   11622   11604   11625       1   11607   11586   11604   11622       1
   11607   11586   11604   11625       1   11604   11622   11610   11628       1
   11601   11616   11637   11649       1   11598   11580   11601   11619       1
   11595   11577   11598   11613       1   11592   11574   11589   11610       1
   11589   11568   11586   11607       1   11589   11610   11622   11640       1
   11586   11604   11622   11640       1   11583   11565   11580   11598       1
   11583   11565   11580   11601       1   11580   11598   11577   11595       1
   11580   11598   11613   11631       1   11577   11562   11574   11592       1
   11577   11598   11613   11631       1   11574   11562   11577   11595       1
   11574   11589   11610   11628       1   11571   11559   11568   11586       1
   11571   11559   11568   11589       1   11568   11586   11604   11625       1
   11568   11589   11574   11592       1   11568   11589   11610   11628       1
   11565   11556   11559   11571       1   11565   11580   11601   11619       1
   11562   11556   11559   11571       1   11562   11556   11565   11583       1
   11559   11556   11565   11583       1   11559   11568   11586   11607       1
   11556   11562   11574   11592       1   11556   11562   11577   11595       1
   11766   11754   11760   11769       1   11763   11751   11760   11769       1
   11757   11745   11754   11760       1   11757   11745   11754   11766       1
   11754   11760   11751   11763       1   11751   11760   11754   11766       1
   11745   11754   11760   11769       1   11742   11724   11745   11757       1
   11742   11751   11760   11769       1   11739   11721   11742   11751       1
   11736   11718   11730   11748       1   11733   11712   11730   11748       1
   11727   11709   11724   11742       1   11727   11709   11724   11745       1
   11724   11742   11721   11739       1   11724   11742   11751   11763       1
   11724   11745   11754   11766       1   11721   11742   11751   11763       1
   11718   11730   11712   11733       1   11715   11694   11712   11730       1
   11715   11694   11712   11733       1   11712   11730   11718   11736       1
   11709   11724   11745   11757       1   11706   11688   11709   11727       1
   11703   11685   11706   11721       1   11700   11682   11697   11718       1
   11697   11676   11694   11715       1   11697   11718   11730   11748       1
   11694   11712   11730   11748       1   11691   11673   11688   11706       1
   11691   11673   11688   11709       1   11688   11706   11685   11703       1
   11688   11706   11721   11739       1   11685   11670   11682   11700       1
   11685   11706   11721   11739       1   11682   11670   11685   11703       1
   11682   11697   11718   11736       1   11679   11667   11676   11694       1
   11679   11667   11676   11697       1   11676   11694   11712   11733       1
   11676   11697   11682   11700       1   11676   11697   11718   11736       1
   11673   11664   11667   11679       1   11673   11688   11709   11727       1
   11670   11664   11667   11679       1   11670   11664   11673   11691       1
   11667   11664   11673   11691       1   11667   11676   11694   11715       1
   11664   11670   11682   11700       1   11664   11670   11685   11703       1
   11874   11862   11868   11877       1   11871   11859   11868   11877       1
   11865   11853   11862   11868       1   11865   11853   11862   11874       1
   11862   11868   11859   11871       1   11859   11868   11862   11874       1
   11853   11862   11868   11877       1   11850   11832   11853   11865       1
   11850   11859   11868   11877       1   11847   11829   11850   11859       1
   11844   11826   11838   11856       1   11841   11820   11838   11856       1
   11835   11817   11832   11850       1   11835   11817   11832   11853       1
   11832   11850   11829   11847       1   11832   11850   11859   11871       1
   11832   11853   11862   11874       1   11829   11850   11859   11871       1
   11826   11838   11820   11841       1   11823   11802   11820   11838       1
   11823   11802   11820   11841       1   11820   11838   11826   11844       1
   11817   11832   11853   11865       1   11814   11796   11817   11835       1
   11811   11793   11814   11829       1   11808   11790   11805   11826       1
   11805   11784   11802   11823       1   11805   11826   11838   11856       1
   11802   11820   11838   11856       1   11799   11781   11796   11814       1
   11799   11781   11796   11817       1   11796   11814   11793   11811       1
   11796   11814   11829   11847       1   11793   11778   11790   11808       1
   11793   11814   11829   11847       1   11790   11778   11793   11811       1
   11790   11805   11826   11844       1   11787   11775   11784   11802       1
   11787   11775   11784   11805       1   11784   11802   11820   11841       1
   11784   11805   11790   11808       1   11784   11805   11826   11844       1
   11781   11772   11775   11787       1   11781   11796   11817   11835       1
   11778   11772   11775   11787       1   11778   11772   11781   11799       1
   11775   11772   11781   11799       1   11775   11784   11802   11823       1
   11772   11778   11790   11808       1   11772   11778   11793   11811       1
   11982   11970   11976   11985       1   11979   11967   11976   11985       1
   11973   11961   11970   11976       1   11973   11961   11970   11982       1
   11970   11976   11967   11979       1   11967   11976   11970   11982       1
   11961   11970   11976   11985       1   11958   11940   11961   11973       1
   11958   11967   11976   11985       1   11955   11937   11958   11967       1
   11952   11934   11946   11964       1   11949   11928   11946   11964       1
   11943   11925   11940   11958       1   11943   11925   11940   11961       1
   11940   11958   11937   11955       1   11940   11958   11967   11979       1
   11940   11961   11970   11982       1   11937   11958   11967   11979       1
   11934   11946   11928   11949       1   11931   11910   11928   11946       1
   11931   11910   11928   11949       1   11928   11946   11934   11952       1
   11925   11940   11961   11973       1   11922   11904   11925   11943       1
   11919   11901   11922   11937       1   11916   11898   11913   11934       1
   11913   11892   11910   11931       1   11913   11934   11946   11964       1
   11910   11928   11946   11964       1   11907   11889   11904   11922       1
   11907   11889   11904   11925       1   11904   11922   11901   11919       1
   11904   11922   11937   11955       1   11901   11886   11898   11916       1
   11901   11922   11937   11955       1   11898   11886   11901   11919       1
   11898   11913   11934   11952       1   11895   11883   11892   11910       1
   11895   11883   11892   11913       1   11892   11910   11928   11949       1
   11892   11913   11898   11916       1   11892   11913   11934   11952       1
   11889   11880   11883   11895       1   11889   11904   11925   11943       1
   11886   11880   11883   11895       1   11886   11880   11889   11907       1
   11883   11880   11889   11907       1   11883   11892   11910   11931       1
   11880   11886   11898   11916       1   11880   11886   11901   11919       1
   12090   12078   12084   12093       1   12087   12075   12084   12093       1
   12081   12069   12078   12084       1   12081   12069   12078   12090       1
   12078   12084   12075   12087       1   12075   12084   12078   12090       1
   12069   12078   12084   12093       1   12066   12048   12069   12081       1
   12066   12075   12084   12093       1   12063   12045   12066   12075       1
   12060   12042   12054   12072       1   12057   12036   12054   12072       1
   12051   12033   12048   12066       1   12051   12033   12048   12069       1
   12048   12066   12045   12063       1   12048   12066   12075   12087       1
   12048   12069   12078   12090       1   12045   12066   12075   12087       1
   12042   12054   12036   12057       1   12039   12018   12036   12054       1
   12039   12018   12036   12057       1   12036   12054   12042   12060       1
   12033   12048   12069   12081       1   12030   12012   12033   12051       1
   12027   12009   12030   12045       1   12024   12006   12021   12042       1
   12021   12000   12018   12039       1   12021   12042   12054   12072       1
   12018   12036   12054   12072       1   12015   11997   12012   12030       1
   12015   11997   12012   12033       1   12012   12030   12009   12027       1
   12012   12030   12045   12063       1   12009   11994   12006   12024       1
   12009   12030   12045   12063       1   12006   11994   12009   12027       1
   12006   12021   12042   12060       1   12003   11991   12000   12018       1
   12003   11991   12000   12021       1   12000   12018   12036   12057       1
   12000   12021   12006   12024       1   12000   12021   12042   12060       1
   11997   11988   11991   12003       1   11997   12012   12033   12051       1
   11994   11988   11991   12003       1   11994   11988   11997   12015       1
   11991   11988   11997   12015       1   11991   12000   12018   12039       1
   11988   11994   12006   12024       1   11988   11994   12009   12027       1
   12198   12186   12192   12201       1   12195   12183   12192   12201       1
   12189   12177   12186   12192       1   12189   12177   12186   12198       1
   12186   12192   12183   12195       1   12183   12192   12186   12198       1
   12177   12186   12192   12201       1   12174   12156   12177   12189       1
   12174   12183   12192   12201       1   12171   12153   12174   12183       1
   12168   12150   12162   12180       1   12165   12144   12162   12180       1
   12159   12141   12156   12174       1   12159   12141   12156   12177       1
   12156   12174   12153   12171       1   12156   12174   12183   12195       1
   12156   12177   12186   12198       1   12153   12174   12183   12195       1
   12150   12162   12144   12165       1   12147   12126   12144   12162       1
   12147   12126   12144   12165       1   12144   12162   12150   12168       1
   12141   12156   12177   12189       1   12138   12120   12141   12159       1
   12135   12117   12138   12153       1   12132   12114   12129   12150       1
   12129   12108   12126   12147       1   12129   12150   12162   12180       1
   12126   12144   12162   12180       1   12123   12105   12120   12138       1
   12123   12105   12120   12141       1   12120   12138   12117   12135       1
   12120   12138   12153   12171       1   12117   12102   12114   12132       1
   12117   12138   12153   12171       1   12114   12102   12117   12135       1
   12114   12129   12150   12168       1   12111   12099   12108   12126       1
   12111   12099   12108   12129       1   12108   12126   12144   12165       1
   12108   12129   12114   12132       1   12108   12129   12150   12168       1
   12105   12096   12099   12111       1   12105   12120   12141   12159       1
   12102   12096   12099   12111       1   12102   12096   12105   12123       1
   12099   12096   12105   12123       1   12099   12108   12126   12147       1
   12096   12102   12114   12132       1   12096   12102   12117   12135       1
   12306   12294   12300   12309       1   12303   12291   12300   12309       1
   12297   12285   12294   12300       1   12297   12285   12294   12306       1
   12294   12300   12291   12303       1   12291   12300   12294   12306       1
   12285   12294   12300   12309       1   12282   12264   12285   12297       1
   12282   12291   12300   12309       1   12279   12261   12282   12291       1
   12276   12258   12270   12288       1   12273   12252   12270   12288       1
   12267   12249   12264   12282       1   12267   12249   12264   12285       1
   12264   12282   12261   12279       1   12264   12282   12291   12303       1
   12264   12285   12294   12306       1   12261   12282   12291   12303       1
   12258   12270   12252   12273       1   12255   12234   12252   12270       1
   12255   12234   12252   12273       1   12252   12270   12258   12276       1
   12249   12264   12285   12297       1   12246   12228   12249   12267       1
   12243   12225   12246   12261       1   12240   12222   12237   12258       1
   12237   12216   12234   12255       1   12237   12258   12270   12288       1
   12234   12252   12270   12288       1   12231   12213   12228   12246       1
   12231   12213   12228   12249       1   12228   12246   12225   12243       1
   12228   12246   12261   12279       1   12225   12210   12222   12240       1
   12225   12246   12261   12279       1   12222   12210   12225   12243       1
   12222   12237   12258   12276       1   12219   12207   12216   12234       1
   12219   12207   12216   12237       1   12216   12234   12252   12273       1
   12216   12237   12222   12240       1   12216   12237   12258   12276       1
   12213   12204   12207   12219       1   12213   12228   12249   12267       1
   12210   12204   12207   12219       1   12210   12204   12213   12231       1
   12207   12204   12213   12231       1   12207   12216   12234   12255       1
   12204   12210   12222   12240       1   12204   12210   12225   12243       1
   12414   12402   12408   12417       1   12411   12399   12408   12417       1
   12405   12393   12402   12408       1   12405   12393   12402   12414       1
   12402   12408   12399   12411       1   12399   12408   12402   12414       1
   12393   12402   12408   12417       1   12390   12372   12393   12405       1
   12390   12399   12408   12417       1   12387   12369   12390   12399       1
   12384   12366   12378   12396       1   12381   12360   12378   12396       1
   12375   12357   12372   12390       1   12375   12357   12372   12393       1
   12372   12390   12369   12387       1   12372   12390   12399   12411       1
   12372   12393   12402   12414       1   12369   12390   12399   12411       1
   12366   12378   12360   12381       1   12363   12342   12360   12378       1
   12363   12342   12360   12381       1   12360   12378   12366   12384       1
   12357   12372   12393   12405       1   12354   12336   12357   12375       1
   12351   12333   12354   12369       1   12348   12330   12345   12366       1
   12345   12324   12342   12363       1   12345   12366   12378   12396       1
   12342   12360   12378   12396       1   12339   12321   12336   12354       1
   12339   12321   12336   12357       1   12336   12354   12333   12351       1
   12336   12354   12369   12387       1   12333   12318   12330   12348       1
   12333   12354   12369   12387       1   12330   12318   12333   12351       1
   12330   12345   12366   12384       1   12327   12315   12324   12342       1
   12327   12315   12324   12345       1   12324   12342   12360   12381       1
   12324   12345   12330   12348       1   12324   12345   12366   12384       1
   12321   12312   12315   12327       1   12321   12336   12357   12375       1
   12318   12312   12315   12327       1   12318   12312   12321   12339       1
   12315   12312   12321   12339       1   12315   12324   12342   12363       1
   12312   12318   12330   12348       1   12312   12318   12333   12351       1
   12522   12510   12516   12525       1   12519   12507   12516   12525       1
   12513   12501   12510   12516       1   12513   12501   12510   12522       1
   12510   12516   12507   12519       1   12507   12516   12510   12522       1
   12501   12510   12516   12525       1   12498   12480   12501   12513       1
   12498   12507   12516   12525       1   12495   12477   12498   12507       1
   12492   12474   12486   12504       1   12489   12468   12486   12504       1
   12483   12465   12480   12498       1   12483   12465   12480   12501       1
   12480   12498   12477   12495       1   12480   12498   12507   12519       1
   12480   12501   12510   12522       1   12477   12498   12507   12519       1
   12474   12486   12468   12489       1   12471   12450   12468   12486       1
   12471   12450   12468   12489       1   12468   12486   12474   12492       1
   12465   12480   12501   12513       1   12462   12444   12465   12483       1
   12459   12441   12462   12477       1   12456   12438   12453   12474       1
   12453   12432   12450   12471       1   12453   12474   12486   12504       1
   12450   12468   12486   12504       1   12447   12429   12444   12462       1
   12447   12429   12444   12465       1   12444   12462   12441   12459       1
   12444   12462   12477   12495       1   12441   12426   12438   12456       1
   12441   12462   12477   12495       1   12438   12426   12441   12459       1
   12438   12453   12474   12492       1   12435   12423   12432   12450       1
   12435   12423   12432   12453       1   12432   12450   12468   12489       1
   12432   12453   12438   12456       1   12432   12453   12474   12492       1
   12429   12420   12423   12435       1   12429   12444   12465   12483       1
   12426   12420   12423   12435       1   12426   12420   12429   12447       1
   12423   12420   12429   12447       1   12423   12432   12450   12471       1
   12420   12426   12438   12456       1   12420   12426   12441   12459       1
   12630   12618   12624   12633       1   12627   12615   12624   12633       1
   12621   12609   12618   12624       1   12621   12609   12618   12630       1
   12618   12624   12615   12627       1   12615   12624   12618   12630       1
   12609   12618   12624   12633       1   12606   12588   12609   12621       1
   12606   12615   12624   12633       1   12603   12585   12606   12615       1
   12600   12582   12594   12612       1   12597   12576   12594   12612       1
   12591   12573   12588   12606       1   12591   12573   12588   12609       1
   12588   12606   12585   12603       1   12588   12606   12615   12627       1
   12588   12609   12618   12630       1   12585   12606   12615   12627       1
   12582   12594   12576   12597       1   12579   12558   12576   12594       1
   12579   12558   12576   12597       1   12576   12594   12582   12600       1
   12573   12588   12609   12621       1   12570   12552   12573   12591       1
   12567   12549   12570   12585       1   12564   12546   12561   12582       1
   12561   12540   12558   12579       1   12561   12582   12594   12612       1
   12558   12576   12594   12612       1   12555   12537   12552   12570       1
   12555   12537   12552   12573       1   12552   12570   12549   12567       1
   12552   12570   12585   12603       1   12549   12534   12546   12564       1
   12549   12570   12585   12603       1   12546   12534   12549   12567       1
   12546   12561   12582   12600       1   12543   12531   12540   12558       1
   12543   12531   12540   12561       1   12540   12558   12576   12597       1
   12540   12561   12546   12564       1   12540   12561   12582   12600       1
   12537   12528   12531   12543       1   12537   12552   12573   12591       1
   12534   12528   12531   12543       1   12534   12528   12537   12555       1
   12531   12528   12537   12555       1   12531   12540   12558   12579       1
   12528   12534   12546   12564       1   12528   12534   12549   12567       1
   12738   12726   12732   12741       1   12735   12723   12732   12741       1
   12729   12717   12726   12732       1   12729   12717   12726   12738       1
   12726   12732   12723   12735       1   12723   12732   12726   12738       1
   12717   12726   12732   12741       1   12714   12696   12717   12729       1
   12714   12723   12732   12741       1   12711   12693   12714   12723       1
   12708   12690   12702   12720       1   12705   12684   12702   12720       1
   12699   12681   12696   12714       1   12699   12681   12696   12717       1
   12696   12714   12693   12711       1   12696   12714   12723   12735       1
   12696   12717   12726   12738       1   12693   12714   12723   12735       1
   12690   12702   12684   12705       1   12687   12666   12684   12702       1
   12687   12666   12684   12705       1   12684   12702   12690   12708       1
   12681   12696   12717   12729       1   12678   12660   12681   12699       1
   12675   12657   12678   12693       1   12672   12654   12669   12690       1
   12669   12648   12666   12687       1   12669   12690   12702   12720       1
   12666   12684   12702   12720       1   12663   12645   12660   12678       1
   12663   12645   12660   12681       1   12660   12678   12657   12675       1
   12660   12678   12693   12711       1   12657   12642   12654   12672       1
   12657   12678   12693   12711       1   12654   12642   12657   12675       1
   12654   12669   12690   12708       1   12651   12639   12648   12666       1
   12651   12639   12648   12669       1   12648   12666   12684   12705       1
   12648   12669   12654   12672       1   12648   12669   12690   12708       1
   12645   12636   12639   12651       1   12645   12660   12681   12699       1
   12642   12636   12639   12651       1   12642   12636   12645   12663       1
   12639   12636   12645   12663       1   12639   12648   12666   12687       1
   12636   12642   12654   12672       1   12636   12642   12657   12675       1
   12846   12834   12840   12849       1   12843   12831   12840   12849       1
   12837   12825   12834   12840       1   12837   12825   12834   12846       1
   12834   12840   12831   12843       1   12831   12840   12834   12846       1
   12825   12834   12840   12849       1   12822   12804   12825   12837       1
   12822   12831   12840   12849       1   12819   12801   12822   12831       1
   12816   12798   12810   12828       1   12813   12792   12810   12828       1
   12807   12789   12804   12822       1   12807   12789   12804   12825       1
   12804   12822   12801   12819       1   12804   12822   12831   12843       1
   12804   12825   12834   12846       1   12801   12822   12831   12843       1
   12798   12810   12792   12813       1   12795   12774   12792   12810       1
   12795   12774   12792   12813       1   12792   12810   12798   12816       1
   12789   12804   12825   12837       1   12786   12768   12789   12807       1
   12783   12765   12786   12801       1   12780   12762   12777   12798       1
   12777   12756   12774   12795       1   12777   12798   12810   12828       1
   12774   12792   12810   12828       1   12771   12753   12768   12786       1
   12771   12753   12768   12789       1   12768   12786   12765   12783       1
   12768   12786   12801   12819       1   12765   12750   12762   12780       1
   12765   12786   12801   12819       1   12762   12750   12765   12783       1
   12762   12777   12798   12816       1   12759   12747   12756   12774       1
   12759   12747   12756   12777       1   12756   12774   12792   12813       1
   12756   12777   12762   12780       1   12756   12777   12798   12816       1
   12753   12744   12747   12759       1   12753   12768   12789   12807       1
   12750   12744   12747   12759       1   12750   12744   12753   12771       1
   12747   12744   12753   12771       1   12747   12756   12774   12795       1
   12744   12750   12762   12780       1   12744   12750   12765   12783       1
   12954   12942   12948   12957       1   12951   12939   12948   12957       1
   12945   12933   12942   12948       1   12945   12933   12942   12954       1
   12942   12948   12939   12951       1   12939   12948   12942   12954       1
   12933   12942   12948   12957       1   12930   12912   12933   12945       1
   12930   12939   12948   12957       1   12927   12909   12930   12939       1
   12924   12906   12918   12936       1   12921   12900   12918   12936       1
   12915   12897   12912   12930       1   12915   12897   12912   12933       1
   12912   12930   12909   12927       1   12912   12930   12939   12951       1
   12912   12933   12942   12954       1   12909   12930   12939   12951       1
   12906   12918   12900   12921       1   12903   12882   12900   12918       1
   12903   12882   12900   12921       1   12900   12918   12906   12924       1
   12897   12912   12933   12945       1   12894   12876   12897   12915       1
   12891   12873   12894   12909       1   12888   12870   12885   12906       1
   12885   12864   12882   12903       1   12885   12906   12918   12936       1
   12882   12900   12918   12936       1   12879   12861   12876   12894       1
   12879   12861   12876   12897       1   12876   12894   12873   12891       1
   12876   12894   12909   12927       1   12873   12858   12870   12888       1
   12873   12894   12909   12927       1   12870   12858   12873   12891       1
   12870   12885   12906   12924       1   12867   12855   12864   12882       1
   12867   12855   12864   12885       1   12864   12882   12900   12921       1
   12864   12885   12870   12888       1   12864   12885   12906   12924       1
   12861   12852   12855   12867       1   12861   12876   12897   12915       1
   12858   12852   12855   12867       1   12858   12852   12861   12879       1
   12855   12852   12861   12879       1   12855   12864   12882   12903       1
   12852   12858   12870   12888       1   12852   12858   12873   12891       1
   13062   13050   13056   13065       1   13059   13047   13056   13065       1
   13053   13041   13050   13056       1   13053   13041   13050   13062       1
   13050   13056   13047   13059       1   13047   13056   13050   13062       1
   13041   13050   13056   13065       1   13038   13020   13041   13053       1
   13038   13047   13056   13065       1   13035   13017   13038   13047       1
   13032   13014   13026   13044       1   13029   13008   13026   13044       1
   13023   13005   13020   13038       1   13023   13005   13020   13041       1
   13020   13038   13017   13035       1   13020   13038   13047   13059       1
   13020   13041   13050   13062       1   13017   13038   13047   13059       1
   13014   13026   13008   13029       1   13011   12990   13008   13026       1
   13011   12990   13008   13029       1   13008   13026   13014   13032       1
   13005   13020   13041   13053       1   13002   12984   13005   13023       1
   12999   12981   13002   13017       1   12996   12978   12993   13014       1
   12993   12972   12990   13011       1   12993   13014   13026   13044       1
   12990   13008   13026   13044       1   12987   12969   12984   13002       1
   12987   12969   12984   13005       1   12984   13002   12981   12999       1
   12984   13002   13017   13035       1   12981   12966   12978   12996       1
   12981   13002   13017   13035       1   12978   12966   12981   12999       1
   12978   12993   13014   13032       1   12975   12963   12972   12990       1
   12975   12963   12972   12993       1   12972   12990   13008   13029       1
   12972   12993   12978   12996       1   12972   12993   13014   13032       1
   12969   12960   12963   12975       1   12969   12984   13005   13023       1
   12966   12960   12963   12975       1   12966   12960   12969   12987       1
   12963   12960   12969   12987       1   12963   12972   12990   13011       1
   12960   12966   12978   12996       1   12960   12966   12981   12999       1
   13170   13158   13164   13173       1   13167   13155   13164   13173       1
   13161   13149   13158   13164       1   13161   13149   13158   13170       1
   13158   13164   13155   13167       1   13155   13164   13158   13170       1
   13149   13158   13164   13173       1   13146   13128   13149   13161       1
   13146   13155   13164   13173       1   13143   13125   13146   13155       1
   13140   13122   13134   13152       1   13137   13116   13134   13152       1
   13131   13113   13128   13146       1   13131   13113   13128   13149       1
   13128   13146   13125   13143       1   13128   13146   13155   13167       1
   13128   13149   13158   13170       1   13125   13146   13155   13167       1
   13122   13134   13116   13137       1   13119   13098   13116   13134       1
   13119   13098   13116   13137       1   13116   13134   13122   13140       1
   13113   13128   13149   13161       1   13110   13092   13113   13131       1
   13107   13089   13110   13125       1   13104   13086   13101   13122       1
   13101   13080   13098   13119       1   13101   13122   13134   13152       1
   13098   13116   13134   13152       1   13095   13077   13092   13110       1
   13095   13077   13092   13113       1   13092   13110   13089   13107       1
   13092   13110   13125   13143       1   13089   13074   13086   13104       1
   13089   13110   13125   13143       1   13086   13074   13089   13107       1
   13086   13101   13122   13140       1   13083   13071   13080   13098       1
   13083   13071   13080   13101       1   13080   13098   13116   13137       1
   13080   13101   13086   13104       1   13080   13101   13122   13140       1
   13077   13068   13071   13083       1   13077   13092   13113   13131       1
   13074   13068   13071   13083       1   13074   13068   13077   13095       1
   13071   13068   13077   13095       1   13071   13080   13098   13119       1
   13068   13074   13086   13104       1   13068   13074   13089   13107       1
   13278   13266   13272   13281       1   13275   13263   13272   13281       1
   13269   13257   13266   13272       1   13269   13257   13266   13278       1
   13266   13272   13263   13275       1   13263   13272   13266   13278       1
   13257   13266   13272   13281       1   13254   13236   13257   13269       1
   13254   13263   13272   13281       1   13251   13233   13254   13263       1
   13248   13230   13242   13260       1   13245   13224   13242   13260       1
   13239   13221   13236   13254       1   13239   13221   13236   13257       1
   13236   13254   13233   13251       1   13236   13254   13263   13275       1
   13236   13257   13266   13278       1   13233   13254   13263   13275       1
   13230   13242   13224   13245       1   13227   13206   13224   13242       1
   13227   13206   13224   13245       1   13224   13242   13230   13248       1
   13221   13236   13257   13269       1   13218   13200   13221   13239       1
   13215   13197   13218   13233       1   13212   13194   13209   13230       1
   13209   13188   13206   13227       1   13209   13230   13242   13260       1
   13206   13224   13242   13260       1   13203   13185   13200   13218       1
   13203   13185   13200   13221       1   13200   13218   13197   13215       1
   13200   13218   13233   13251       1   13197   13182   13194   13212       1
   13197   13218   13233   13251       1   13194   13182   13197   13215       1
   13194   13209   13230   13248       1   13191   13179   13188   13206       1
   13191   13179   13188   13209       1   13188   13206   13224   13245       1
   13188   13209   13194   13212       1   13188   13209   13230   13248       1
   13185   13176   13179   13191       1   13185   13200   13221   13239       1
   13182   13176   13179   13191       1   13182   13176   13185   13203       1
   13179   13176   13185   13203       1   13179   13188   13206   13227       1
   13176   13182   13194   13212       1   13176   13182   13197   13215       1
   13386   13374   13380   13389       1   13383   13371   13380   13389       1
   13377   13365   13374   13380       1   13377   13365   13374   13386       1
   13374   13380   13371   13383       1   13371   13380   13374   13386       1
   13365   13374   13380   13389       1   13362   13344   13365   13377       1
   13362   13371   13380   13389       1   13359   13341   13362   13371       1
   13356   13338   13350   13368       1   13353   13332   13350   13368       1
   13347   13329   13344   13362       1   13347   13329   13344   13365       1
   13344   13362   13341   13359       1   13344   13362   13371   13383       1
   13344   13365   13374   13386       1   13341   13362   13371   13383       1
   13338   13350   13332   13353       1   13335   13314   13332   13350       1
   13335   13314   13332   13353       1   13332   13350   13338   13356       1
   13329   13344   13365   13377       1   13326   13308   13329   13347       1
   13323   13305   13326   13341       1   13320   13302   13317   13338       1
   13317   13296   13314   13335       1   13317   13338   13350   13368       1
   13314   13332   13350   13368       1   13311   13293   13308   13326       1
   13311   13293   13308   13329       1   13308   13326   13305   13323       1
   13308   13326   13341   13359       1   13305   13290   13302   13320       1
   13305   13326   13341   13359       1   13302   13290   13305   13323       1
   13302   13317   13338   13356       1   13299   13287   13296   13314       1
   13299   13287   13296   13317       1   13296   13314   13332   13353       1
   13296   13317   13302   13320       1   13296   13317   13338   13356       1
   13293   13284   13287   13299       1   13293   13308   13329   13347       1
   13290   13284   13287   13299       1   13290   13284   13293   13311       1
   13287   13284   13293   13311       1   13287   13296   13314   13335       1
   13284   13290   13302   13320       1   13284   13290   13305   13323       1
   13494   13482   13488   13497       1   13491   13479   13488   13497       1
   13485   13473   13482   13488       1   13485   13473   13482   13494       1
   13482   13488   13479   13491       1   13479   13488   13482   13494       1
   13473   13482   13488   13497       1   13470   13452   13473   13485       1
   13470   13479   13488   13497       1   13467   13449   13470   13479       1
   13464   13446   13458   13476       1   13461   13440   13458   13476       1
   13455   13437   13452   13470       1   13455   13437   13452   13473       1
   13452   13470   13449   13467       1   13452   13470   13479   13491       1
   13452   13473   13482   13494       1   13449   13470   13479   13491       1
   13446   13458   13440   13461       1   13443   13422   13440   13458       1
   13443   13422   13440   13461       1   13440   13458   13446   13464       1
   13437   13452   13473   13485       1   13434   13416   13437   13455       1
   13431   13413   13434   13449       1   13428   13410   13425   13446       1
   13425   13404   13422   13443       1   13425   13446   13458   13476       1
   13422   13440   13458   13476       1   13419   13401   13416   13434       1
   13419   13401   13416   13437       1   13416   13434   13413   13431       1
   13416   13434   13449   13467       1   13413   13398   13410   13428       1
   13413   13434   13449   13467       1   13410   13398   13413   13431       1
   13410   13425   13446   13464       1   13407   13395   13404   13422       1
   13407   13395   13404   13425       1   13404   13422   13440   13461       1
   13404   13425   13410   13428       1   13404   13425   13446   13464       1
   13401   13392   13395   13407       1   13401   13416   13437   13455       1
   13398   13392   13395   13407       1   13398   13392   13401   13419       1
   13395   13392   13401   13419       1   13395   13404   13422   13443       1
   13392   13398   13410   13428       1   13392   13398   13413   13431       1
   13602   13590   13596   13605       1   13599   13587   13596   13605       1
   13593   13581   13590   13596       1   13593   13581   13590   13602       1
   13590   13596   13587   13599       1   13587   13596   13590   13602       1
   13581   13590   13596   13605       1   13578   13560   13581   13593       1
   13578   13587   13596   13605       1   13575   13557   13578   13587       1
   13572   13554   13566   13584       1   13569   13548   13566   13584       1
   13563   13545   13560   13578       1   13563   13545   13560   13581       1
   13560   13578   13557   13575       1   13560   13578   13587   13599       1
   13560   13581   13590   13602       1   13557   13578   13587   13599       1
   13554   13566   13548   13569       1   13551   13530   13548   13566       1
   13551   13530   13548   13569       1   13548   13566   13554   13572       1
   13545   13560   13581   13593       1   13542   13524   13545   13563       1
   13539   13521   13542   13557       1   13536   13518   13533   13554       1
   13533   13512   13530   13551       1   13533   13554   13566   13584       1
   13530   13548   13566   13584       1   13527   13509   13524   13542       1
   13527   13509   13524   13545       1   13524   13542   13521   13539       1
   13524   13542   13557   13575       1   13521   13506   13518   13536       1
   13521   13542   13557   13575       1   13518   13506   13521   13539       1
   13518   13533   13554   13572       1   13515   13503   13512   13530       1
   13515   13503   13512   13533       1   13512   13530   13548   13569       1
   13512   13533   13518   13536       1   13512   13533   13554   13572       1
   13509   13500   13503   13515       1   13509   13524   13545   13563       1
   13506   13500   13503   13515       1   13506   13500   13509   13527       1
   13503   13500   13509   13527       1   13503   13512   13530   13551       1
   13500   13506   13518   13536       1   13500   13506   13521   13539       1
   13710   13698   13704   13713       1   13707   13695   13704   13713       1
   13701   13689   13698   13704       1   13701   13689   13698   13710       1
   13698   13704   13695   13707       1   13695   13704   13698   13710       1
   13689   13698   13704   13713       1   13686   13668   13689   13701       1
   13686   13695   13704   13713       1   13683   13665   13686   13695       1
   13680   13662   13674   13692       1   13677   13656   13674   13692       1
   13671   13653   13668   13686       1   13671   13653   13668   13689       1
   13668   13686   13665   13683       1   13668   13686   13695   13707       1
   13668   13689   13698   13710       1   13665   13686   13695   13707       1
   13662   13674   13656   13677       1   13659   13638   13656   13674       1
   13659   13638   13656   13677       1   13656   13674   13662   13680       1
   13653   13668   13689   13701       1   13650   13632   13653   13671       1
   13647   13629   13650   13665       1   13644   13626   13641   13662       1
   13641   13620   13638   13659       1   13641   13662   13674   13692       1
   13638   13656   13674   13692       1   13635   13617   13632   13650       1
   13635   13617   13632   13653       1   13632   13650   13629   13647       1
   13632   13650   13665   13683       1   13629   13614   13626   13644       1
   13629   13650   13665   13683       1   13626   13614   13629   13647       1
   13626   13641   13662   13680       1   13623   13611   13620   13638       1
   13623   13611   13620   13641       1   13620   13638   13656   13677       1
   13620   13641   13626   13644       1   13620   13641   13662   13680       1
   13617   13608   13611   13623       1   13617   13632   13653   13671       1
   13614   13608   13611   13623       1   13614   13608   13617   13635       1
   13611   13608   13617   13635       1   13611   13620   13638   13659       1
   13608   13614   13626   13644       1   13608   13614   13629   13647       1
   13818   13806   13812   13821       1   13815   13803   13812   13821       1
   13809   13797   13806   13812       1   13809   13797   13806   13818       1
   13806   13812   13803   13815       1   13803   13812   13806   13818       1
   13797   13806   13812   13821       1   13794   13776   13797   13809       1
   13794   13803   13812   13821       1   13791   13773   13794   13803       1
   13788   13770   13782   13800       1   13785   13764   13782   13800       1
   13779   13761   13776   13794       1   13779   13761   13776   13797       1
   13776   13794   13773   13791       1   13776   13794   13803   13815       1
   13776   13797   13806   13818       1   13773   13794   13803   13815       1
   13770   13782   13764   13785       1   13767   13746   13764   13782       1
   13767   13746   13764   13785       1   13764   13782   13770   13788       1
   13761   13776   13797   13809       1   13758   13740   13761   13779       1
   13755   13737   13758   13773       1   13752   13734   13749   13770       1
   13749   13728   13746   13767       1   13749   13770   13782   13800       1
   13746   13764   13782   13800       1   13743   13725   13740   13758       1
   13743   13725   13740   13761       1   13740   13758   13737   13755       1
   13740   13758   13773   13791       1   13737   13722   13734   13752       1
   13737   13758   13773   13791       1   13734   13722   13737   13755       1
   13734   13749   13770   13788       1   13731   13719   13728   13746       1
   13731   13719   13728   13749       1   13728   13746   13764   13785       1
   13728   13749   13734   13752       1   13728   13749   13770   13788       1
   13725   13716   13719   13731       1   13725   13740   13761   13779       1
   13722   13716   13719   13731       1   13722   13716   13725   13743       1
   13719   13716   13725   13743       1   13719   13728   13746   13767       1
   13716   13722   13734   13752       1   13716   13722   13737   13755       1
   13926   13914   13920   13929       1   13923   13911   13920   13929       1
   13917   13905   13914   13920       1   13917   13905   13914   13926       1
   13914   13920   13911   13923       1   13911   13920   13914   13926       1
   13905   13914   13920   13929       1   13902   13884   13905   13917       1
   13902   13911   13920   13929       1   13899   13881   13902   13911       1
   13896   13878   13890   13908       1   13893   13872   13890   13908       1
   13887   13869   13884   13902       1   13887   13869   13884   13905       1
   13884   13902   13881   13899       1   13884   13902   13911   13923       1
   13884   13905   13914   13926       1   13881   13902   13911   13923       1
   13878   13890   13872   13893       1   13875   13854   13872   13890       1
   13875   13854   13872   13893       1   13872   13890   13878   13896       1
   13869   13884   13905   13917       1   13866   13848   13869   13887       1
   13863   13845   13866   13881       1   13860   13842   13857   13878       1
   13857   13836   13854   13875       1   13857   13878   13890   13908       1
   13854   13872   13890   13908       1   13851   13833   13848   13866       1
   13851   13833   13848   13869       1   13848   13866   13845   13863       1
   13848   13866   13881   13899       1   13845   13830   13842   13860       1
   13845   13866   13881   13899       1   13842   13830   13845   13863       1
   13842   13857   13878   13896       1   13839   13827   13836   13854       1
   13839   13827   13836   13857       1   13836   13854   13872   13893       1
   13836   13857   13842   13860       1   13836   13857   13878   13896       1
   13833   13824   13827   13839       1   13833   13848   13869   13887       1
   13830   13824   13827   13839       1   13830   13824   13833   13851       1
   13827   13824   13833   13851       1   13827   13836   13854   13875       1
   13824   13830   13842   13860       1   13824   13830   13845   13863       1
   14034   14022   14028   14037       1   14031   14019   14028   14037       1
   14025   14013   14022   14028       1   14025   14013   14022   14034       1
   14022   14028   14019   14031       1   14019   14028   14022   14034       1
   14013   14022   14028   14037       1   14010   13992   14013   14025       1
   14010   14019   14028   14037       1   14007   13989   14010   14019       1
   14004   13986   13998   14016       1   14001   13980   13998   14016       1
   13995   13977   13992   14010       1   13995   13977   13992   14013       1
   13992   14010   13989   14007       1   13992   14010   14019   14031       1
   13992   14013   14022   14034       1   13989   14010   14019   14031       1
   13986   13998   13980   14001       1   13983   13962   13980   13998       1
   13983   13962   13980   14001       1   13980   13998   13986   14004       1
   13977   13992   14013   14025       1   13974   13956   13977   13995       1
   13971   13953   13974   13989       1   13968   13950   13965   13986       1
   13965   13944   13962   13983       1   13965   13986   13998   14016       1
   13962   13980   13998   14016       1   13959   13941   13956   13974       1
   13959   13941   13956   13977       1   13956   13974   13953   13971       1
   13956   13974   13989   14007       1   13953   13938   13950   13968       1
   13953   13974   13989   14007       1   13950   13938   13953   13971       1
   13950   13965   13986   14004       1   13947   13935   13944   13962       1
   13947   13935   13944   13965       1   13944   13962   13980   14001       1
   13944   13965   13950   13968       1   13944   13965   13986   14004       1
   13941   13932   13935   13947       1   13941   13956   13977   13995       1
   13938   13932   13935   13947       1   13938   13932   13941   13959       1
   13935   13932   13941   13959       1   13935   13944   13962   13983       1
   13932   13938   13950   13968       1   13932   13938   13953   13971       1
   14142   14130   14136   14145       1   14139   14127   14136   14145       1
   14133   14121   14130   14136       1   14133   14121   14130   14142       1
   14130   14136   14127   14139       1   14127   14136   14130   14142       1
   14121   14130   14136   14145       1   14118   14100   14121   14133       1
   14118   14127   14136   14145       1   14115   14097   14118   14127       1
   14112   14094   14106   14124       1   14109   14088   14106   14124       1
   14103   14085   14100   14118       1   14103   14085   14100   14121       1
   14100   14118   14097   14115       1   14100   14118   14127   14139       1
   14100   14121   14130   14142       1   14097   14118   14127   14139       1
   14094   14106   14088   14109       1   14091   14070   14088   14106       1
   14091   14070   14088   14109       1   14088   14106   14094   14112       1
   14085   14100   14121   14133       1   14082   14064   14085   14103       1
   14079   14061   14082   14097       1   14076   14058   14073   14094       1
   14073   14052   14070   14091       1   14073   14094   14106   14124       1
   14070   14088   14106   14124       1   14067   14049   14064   14082       1
   14067   14049   14064   14085       1   14064   14082   14061   14079       1
   14064   14082   14097   14115       1   14061   14046   14058   14076       1
   14061   14082   14097   14115       1   14058   14046   14061   14079       1
   14058   14073   14094   14112       1   14055   14043   14052   14070       1
   14055   14043   14052   14073       1   14052   14070   14088   14109       1
   14052   14073   14058   14076       1   14052   14073   14094   14112       1
   14049   14040   14043   14055       1   14049   14064   14085   14103       1
   14046   14040   14043   14055       1   14046   14040   14049   14067       1
   14043   14040   14049   14067       1   14043   14052   14070   14091       1
   14040   14046   14058   14076       1   14040   14046   14061   14079       1
   14250   14238   14244   14253       1   14247   14235   14244   14253       1
   14241   14229   14238   14244       1   14241   14229   14238   14250       1
   14238   14244   14235   14247       1   14235   14244   14238   14250       1
   14229   14238   14244   14253       1   14226   14208   14229   14241       1
   14226   14235   14244   14253       1   14223   14205   14226   14235       1
   14220   14202   14214   14232       1   14217   14196   14214   14232       1
   14211   14193   14208   14226       1   14211   14193   14208   14229       1
   14208   14226   14205   14223       1   14208   14226   14235   14247       1
   14208   14229   14238   14250       1   14205   14226   14235   14247       1
   14202   14214   14196   14217       1   14199   14178   14196   14214       1
   14199   14178   14196   14217       1   14196   14214   14202   14220       1
   14193   14208   14229   14241       1   14190   14172   14193   14211       1
   14187   14169   14190   14205       1   14184   14166   14181   14202       1
   14181   14160   14178   14199       1   14181   14202   14214   14232       1
   14178   14196   14214   14232       1   14175   14157   14172   14190       1
   14175   14157   14172   14193       1   14172   14190   14169   14187       1
   14172   14190   14205   14223       1   14169   14154   14166   14184       1
   14169   14190   14205   14223       1   14166   14154   14169   14187       1
   14166   14181   14202   14220       1   14163   14151   14160   14178       1
   14163   14151   14160   14181       1   14160   14178   14196   14217       1
   14160   14181   14166   14184       1   14160   14181   14202   14220       1
   14157   14148   14151   14163       1   14157   14172   14193   14211       1
   14154   14148   14151   14163       1   14154   14148   14157   14175       1
   14151   14148   14157   14175       1   14151   14160   14178   14199       1
   14148   14154   14166   14184       1   14148   14154   14169   14187       1
   14358   14346   14352   14361       1   14355   14343   14352   14361       1
   14349   14337   14346   14352       1   14349   14337   14346   14358       1
   14346   14352   14343   14355       1   14343   14352   14346   14358       1
   14337   14346   14352   14361       1   14334   14316   14337   14349       1
   14334   14343   14352   14361       1   14331   14313   14334   14343       1
   14328   14310   14322   14340       1   14325   14304   14322   14340       1
   14319   14301   14316   14334       1   14319   14301   14316   14337       1
   14316   14334   14313   14331       1   14316   14334   14343   14355       1
   14316   14337   14346   14358       1   14313   14334   14343   14355       1
   14310   14322   14304   14325       1   14307   14286   14304   14322       1
   14307   14286   14304   14325       1   14304   14322   14310   14328       1
   14301   14316   14337   14349       1   14298   14280   14301   14319       1
   14295   14277   14298   14313       1   14292   14274   14289   14310       1
   14289   14268   14286   14307       1   14289   14310   14322   14340       1
   14286   14304   14322   14340       1   14283   14265   14280   14298       1
   14283   14265   14280   14301       1   14280   14298   14277   14295       1
   14280   14298   14313   14331       1   14277   14262   14274   14292       1
   14277   14298   14313   14331       1   14274   14262   14277   14295       1
   14274   14289   14310   14328       1   14271   14259   14268   14286       1
   14271   14259   14268   14289       1   14268   14286   14304   14325       1
   14268   14289   14274   14292       1   14268   14289   14310   14328       1
   14265   14256   14259   14271       1   14265   14280   14301   14319       1
   14262   14256   14259   14271       1   14262   14256   14265   14283       1
   14259   14256   14265   14283       1   14259   14268   14286   14307       1
   14256   14262   14274   14292       1   14256   14262   14277   14295       1
   14466   14454   14460   14469       1   14463   14451   14460   14469       1
   14457   14445   14454   14460       1   14457   14445   14454   14466       1
   14454   14460   14451   14463       1   14451   14460   14454   14466       1
   14445   14454   14460   14469       1   14442   14424   14445   14457       1
   14442   14451   14460   14469       1   14439   14421   14442   14451       1
   14436   14418   14430   14448       1   14433   14412   14430   14448       1
   14427   14409   14424   14442       1   14427   14409   14424   14445       1
   14424   14442   14421   14439       1   14424   14442   14451   14463       1
   14424   14445   14454   14466       1   14421   14442   14451   14463       1
   14418   14430   14412   14433       1   14415   14394   14412   14430       1
   14415   14394   14412   14433       1   14412   14430   14418   14436       1
   14409   14424   14445   14457       1   14406   14388   14409   14427       1
   14403   14385   14406   14421       1   14400   14382   14397   14418       1
   14397   14376   14394   14415       1   14397   14418   14430   14448       1
   14394   14412   14430   14448       1   14391   14373   14388   14406       1
   14391   14373   14388   14409       1   14388   14406   14385   14403       1
   14388   14406   14421   14439       1   14385   14370   14382   14400       1
   14385   14406   14421   14439       1   14382   14370   14385   14403       1
   14382   14397   14418   14436       1   14379   14367   14376   14394       1
   14379   14367   14376   14397       1   14376   14394   14412   14433       1
   14376   14397   14382   14400       1   14376   14397   14418   14436       1
   14373   14364   14367   14379       1   14373   14388   14409   14427       1
   14370   14364   14367   14379       1   14370   14364   14373   14391       1
   14367   14364   14373   14391       1   14367   14376   14394   14415       1
   14364   14370   14382   14400       1   14364   14370   14385   14403       1
   14574   14562   14568   14577       1   14571   14559   14568   14577       1
   14565   14553   14562   14568       1   14565   14553   14562   14574       1
   14562   14568   14559   14571       1   14559   14568   14562   14574       1
   14553   14562   14568   14577       1   14550   14532   14553   14565       1
   14550   14559   14568   14577       1   14547   14529   14550   14559       1
   14544   14526   14538   14556       1   14541   14520   14538   14556       1
   14535   14517   14532   14550       1   14535   14517   14532   14553       1
   14532   14550   14529   14547       1   14532   14550   14559   14571       1
   14532   14553   14562   14574       1   14529   14550   14559   14571       1
   14526   14538   14520   14541       1   14523   14502   14520   14538       1
   14523   14502   14520   14541       1   14520   14538   14526   14544       1
   14517   14532   14553   14565       1   14514   14496   14517   14535       1
   14511   14493   14514   14529       1   14508   14490   14505   14526       1
   14505   14484   14502   14523       1   14505   14526   14538   14556       1
   14502   14520   14538   14556       1   14499   14481   14496   14514       1
   14499   14481   14496   14517       1   14496   14514   14493   14511       1
   14496   14514   14529   14547       1   14493   14478   14490   14508       1
   14493   14514   14529   14547       1   14490   14478   14493   14511       1
   14490   14505   14526   14544       1   14487   14475   14484   14502       1
   14487   14475   14484   14505       1   14484   14502   14520   14541       1
   14484   14505   14490   14508       1   14484   14505   14526   14544       1
   14481   14472   14475   14487       1   14481   14496   14517   14535       1
   14478   14472   14475   14487       1   14478   14472   14481   14499       1
   14475   14472   14481   14499       1   14475   14484   14502   14523       1
   14472   14478   14490   14508       1   14472   14478   14493   14511       1
   14682   14670   14676   14685       1   14679   14667   14676   14685       1
   14673   14661   14670   14676       1   14673   14661   14670   14682       1
   14670   14676   14667   14679       1   14667   14676   14670   14682       1
   14661   14670   14676   14685       1   14658   14640   14661   14673       1
   14658   14667   14676   14685       1   14655   14637   14658   14667       1
   14652   14634   14646   14664       1   14649   14628   14646   14664       1
   14643   14625   14640   14658       1   14643   14625   14640   14661       1
   14640   14658   14637   14655       1   14640   14658   14667   14679       1
   14640   14661   14670   14682       1   14637   14658   14667   14679       1
   14634   14646   14628   14649       1   14631   14610   14628   14646       1
   14631   14610   14628   14649       1   14628   14646   14634   14652       1
   14625   14640   14661   14673       1   14622   14604   14625   14643       1
   14619   14601   14622   14637       1   14616   14598   14613   14634       1
   14613   14592   14610   14631       1   14613   14634   14646   14664       1
   14610   14628   14646   14664       1   14607   14589   14604   14622       1
   14607   14589   14604   14625       1   14604   14622   14601   14619       1
   14604   14622   14637   14655       1   14601   14586   14598   14616       1
   14601   14622   14637   14655       1   14598   14586   14601   14619       1
   14598   14613   14634   14652       1   14595   14583   14592   14610       1
   14595   14583   14592   14613       1   14592   14610   14628   14649       1
   14592   14613   14598   14616       1   14592   14613   14634   14652       1
   14589   14580   14583   14595       1   14589   14604   14625   14643       1
   14586   14580   14583   14595       1   14586   14580   14589   14607       1
   14583   14580   14589   14607       1   14583   14592   14610   14631       1
   14580   14586   14598   14616       1   14580   14586   14601   14619       1
   14790   14778   14784   14793       1   14787   14775   14784   14793       1
   14781   14769   14778   14784       1   14781   14769   14778   14790       1
   14778   14784   14775   14787       1   14775   14784   14778   14790       1
   14769   14778   14784   14793       1   14766   14748   14769   14781       1
   14766   14775   14784   14793       1   14763   14745   14766   14775       1
   14760   14742   14754   14772       1   14757   14736   14754   14772       1
   14751   14733   14748   14766       1   14751   14733   14748   14769       1
   14748   14766   14745   14763       1   14748   14766   14775   14787       1
   14748   14769   14778   14790       1   14745   14766   14775   14787       1
   14742   14754   14736   14757       1   14739   14718   14736   14754       1
   14739   14718   14736   14757       1   14736   14754   14742   14760       1
   14733   14748   14769   14781       1   14730   14712   14733   14751       1
   14727   14709   14730   14745       1   14724   14706   14721   14742       1
   14721   14700   14718   14739       1   14721   14742   14754   14772       1
   14718   14736   14754   14772       1   14715   14697   14712   14730       1
   14715   14697   14712   14733       1   14712   14730   14709   14727       1
   14712   14730   14745   14763       1   14709   14694   14706   14724       1
   14709   14730   14745   14763       1   14706   14694   14709   14727       1
   14706   14721   14742   14760       1   14703   14691   14700   14718       1
   14703   14691   14700   14721       1   14700   14718   14736   14757       1
   14700   14721   14706   14724       1   14700   14721   14742   14760       1
   14697   14688   14691   14703       1   14697   14712   14733   14751       1
   14694   14688   14691   14703       1   14694   14688   14697   14715       1
   14691   14688   14697   14715       1   14691   14700   14718   14739       1
   14688   14694   14706   14724       1   14688   14694   14709   14727       1
   14898   14886   14892   14901       1   14895   14883   14892   14901       1
   14889   14877   14886   14892       1   14889   14877   14886   14898       1
   14886   14892   14883   14895       1   14883   14892   14886   14898       1
   14877   14886   14892   14901       1   14874   14856   14877   14889       1
   14874   14883   14892   14901       1   14871   14853   14874   14883       1
   14868   14850   14862   14880       1   14865   14844   14862   14880       1
   14859   14841   14856   14874       1   14859   14841   14856   14877       1
   14856   14874   14853   14871       1   14856   14874   14883   14895       1
   14856   14877   14886   14898       1   14853   14874   14883   14895       1
   14850   14862   14844   14865       1   14847   14826   14844   14862       1
   14847   14826   14844   14865       1   14844   14862   14850   14868       1
   14841   14856   14877   14889       1   14838   14820   14841   14859       1
   14835   14817   14838   14853       1   14832   14814   14829   14850       1
   14829   14808   14826   14847       1   14829   14850   14862   14880       1
   14826   14844   14862   14880       1   14823   14805   14820   14838       1
   14823   14805   14820   14841       1   14820   14838   14817   14835       1
   14820   14838   14853   14871       1   14817   14802   14814   14832       1
   14817   14838   14853   14871       1   14814   14802   14817   14835       1
   14814   14829   14850   14868       1   14811   14799   14808   14826       1
   14811   14799   14808   14829       1   14808   14826   14844   14865       1
   14808   14829   14814   14832       1   14808   14829   14850   14868       1
   14805   14796   14799   14811       1   14805   14820   14841   14859       1
   14802   14796   14799   14811       1   14802   14796   14805   14823       1
   14799   14796   14805   14823       1   14799   14808   14826   14847       1
   14796   14802   14814   14832       1   14796   14802   14817   14835       1
   15006   14994   15000   15009       1   15003   14991   15000   15009       1
   14997   14985   14994   15000       1   14997   14985   14994   15006       1
   14994   15000   14991   15003       1   14991   15000   14994   15006       1
   14985   14994   15000   15009       1   14982   14964   14985   14997       1
   14982   14991   15000   15009       1   14979   14961   14982   14991       1
   14976   14958   14970   14988       1   14973   14952   14970   14988       1
   14967   14949   14964   14982       1   14967   14949   14964   14985       1
   14964   14982   14961   14979       1   14964   14982   14991   15003       1
   14964   14985   14994   15006       1   14961   14982   14991   15003       1
   14958   14970   14952   14973       1   14955   14934   14952   14970       1
   14955   14934   14952   14973       1   14952   14970   14958   14976       1
   14949   14964   14985   14997       1   14946   14928   14949   14967       1
   14943   14925   14946   14961       1   14940   14922   14937   14958       1
   14937   14916   14934   14955       1   14937   14958   14970   14988       1
   14934   14952   14970   14988       1   14931   14913   14928   14946       1
   14931   14913   14928   14949       1   14928   14946   14925   14943       1
   14928   14946   14961   14979       1   14925   14910   14922   14940       1
   14925   14946   14961   14979       1   14922   14910   14925   14943       1
   14922   14937   14958   14976       1   14919   14907   14916   14934       1
   14919   14907   14916   14937       1   14916   14934   14952   14973       1
   14916   14937   14922   14940       1   14916   14937   14958   14976       1
   14913   14904   14907   14919       1   14913   14928   14949   14967       1
   14910   14904   14907   14919       1   14910   14904   14913   14931       1
   14907   14904   14913   14931       1   14907   14916   14934   14955       1
   14904   14910   14922   14940       1   14904   14910   14925   14943       1
   15114   15102   15108   15117       1   15111   15099   15108   15117       1
   15105   15093   15102   15108       1   15105   15093   15102   15114       1
   15102   15108   15099   15111       1   15099   15108   15102   15114       1
   15093   15102   15108   15117       1   15090   15072   15093   15105       1
   15090   15099   15108   15117       1   15087   15069   15090   15099       1
   15084   15066   15078   15096       1   15081   15060   15078   15096       1
   15075   15057   15072   15090       1   15075   15057   15072   15093       1
   15072   15090   15069   15087       1   15072   15090   15099   15111       1
   15072   15093   15102   15114       1   15069   15090   15099   15111       1
   15066   15078   15060   15081       1   15063   15042   15060   15078       1
   15063   15042   15060   15081       1   15060   15078   15066   15084       1
   15057   15072   15093   15105       1   15054   15036   15057   15075       1
   15051   15033   15054   15069       1   15048   15030   15045   15066       1
   15045   15024   15042   15063       1   15045   15066   15078   15096       1
   15042   15060   15078   15096       1   15039   15021   15036   15054       1
   15039   15021   15036   15057       1   15036   15054   15033   15051       1
   15036   15054   15069   15087       1   15033   15018   15030   15048       1
   15033   15054   15069   15087       1   15030   15018   15033   15051       1
   15030   15045   15066   15084       1   15027   15015   15024   15042       1
   15027   15015   15024   15045       1   15024   15042   15060   15081       1
   15024   15045   15030   15048       1   15024   15045   15066   15084       1
   15021   15012   15015   15027       1   15021   15036   15057   15075       1
   15018   15012   15015   15027       1   15018   15012   15021   15039       1
   15015   15012   15021   15039       1   15015   15024   15042   15063       1
   15012   15018   15030   15048       1   15012   15018   15033   15051       1
   15222   15210   15216   15225       1   15219   15207   15216   15225       1
   15213   15201   15210   15216       1   15213   15201   15210   15222       1
   15210   15216   15207   15219       1   15207   15216   15210   15222       1
   15201   15210   15216   15225       1   15198   15180   15201   15213       1
   15198   15207   15216   15225       1   15195   15177   15198   15207       1
   15192   15174   15186   15204       1   15189   15168   15186   15204       1
   15183   15165   15180   15198       1   15183   15165   15180   15201       1
   15180   15198   15177   15195       1   15180   15198   15207   15219       1
   15180   15201   15210   15222       1   15177   15198   15207   15219       1
   15174   15186   15168   15189       1   15171   15150   15168   15186       1
   15171   15150   15168   15189       1   15168   15186   15174   15192       1
   15165   15180   15201   15213       1   15162   15144   15165   15183       1
   15159   15141   15162   15177       1   15156   15138   15153   15174       1
   15153   15132   15150   15171       1   15153   15174   15186   15204       1
   15150   15168   15186   15204       1   15147   15129   15144   15162       1
   15147   15129   15144   15165       1   15144   15162   15141   15159       1
   15144   15162   15177   15195       1   15141   15126   15138   15156       1
   15141   15162   15177   15195       1   15138   15126   15141   15159       1
   15138   15153   15174   15192       1   15135   15123   15132   15150       1
   15135   15123   15132   15153       1   15132   15150   15168   15189       1
   15132   15153   15138   15156       1   15132   15153   15174   15192       1
   15129   15120   15123   15135       1   15129   15144   15165   15183       1
   15126   15120   15123   15135       1   15126   15120   15129   15147       1
   15123   15120   15129   15147       1   15123   15132   15150   15171       1
   15120   15126   15138   15156       1   15120   15126   15141   15159       1
   15330   15318   15324   15333       1   15327   15315   15324   15333       1
   15321   15309   15318   15324       1   15321   15309   15318   15330       1
   15318   15324   15315   15327       1   15315   15324   15318   15330       1
   15309   15318   15324   15333       1   15306   15288   15309   15321       1
   15306   15315   15324   15333       1   15303   15285   15306   15315       1
   15300   15282   15294   15312       1   15297   15276   15294   15312       1
   15291   15273   15288   15306       1   15291   15273   15288   15309       1
   15288   15306   15285   15303       1   15288   15306   15315   15327       1
   15288   15309   15318   15330       1   15285   15306   15315   15327       1
   15282   15294   15276   15297       1   15279   15258   15276   15294       1
   15279   15258   15276   15297       1   15276   15294   15282   15300       1
   15273   15288   15309   15321       1   15270   15252   15273   15291       1
   15267   15249   15270   15285       1   15264   15246   15261   15282       1
   15261   15240   15258   15279       1   15261   15282   15294   15312       1
   15258   15276   15294   15312       1   15255   15237   15252   15270       1
   15255   15237   15252   15273       1   15252   15270   15249   15267       1
   15252   15270   15285   15303       1   15249   15234   15246   15264       1
   15249   15270   15285   15303       1   15246   15234   15249   15267       1
   15246   15261   15282   15300       1   15243   15231   15240   15258       1
   15243   15231   15240   15261       1   15240   15258   15276   15297       1
   15240   15261   15246   15264       1   15240   15261   15282   15300       1
   15237   15228   15231   15243       1   15237   15252   15273   15291       1
   15234   15228   15231   15243       1   15234   15228   15237   15255       1
   15231   15228   15237   15255       1   15231   15240   15258   15279       1
   15228   15234   15246   15264       1   15228   15234   15249   15267       1
   15438   15426   15432   15441       1   15435   15423   15432   15441       1
   15429   15417   15426   15432       1   15429   15417   15426   15438       1
   15426   15432   15423   15435       1   15423   15432   15426   15438       1
   15417   15426   15432   15441       1   15414   15396   15417   15429       1
   15414   15423   15432   15441       1   15411   15393   15414   15423       1
   15408   15390   15402   15420       1   15405   15384   15402   15420       1
   15399   15381   15396   15414       1   15399   15381   15396   15417       1
   15396   15414   15393   15411       1   15396   15414   15423   15435       1
   15396   15417   15426   15438       1   15393   15414   15423   15435       1
   15390   15402   15384   15405       1   15387   15366   15384   15402       1
   15387   15366   15384   15405       1   15384   15402   15390   15408       1
   15381   15396   15417   15429       1   15378   15360   15381   15399       1
   15375   15357   15378   15393       1   15372   15354   15369   15390       1
   15369   15348   15366   15387       1   15369   15390   15402   15420       1
   15366   15384   15402   15420       1   15363   15345   15360   15378       1
   15363   15345   15360   15381       1   15360   15378   15357   15375       1
   15360   15378   15393   15411       1   15357   15342   15354   15372       1
   15357   15378   15393   15411       1   15354   15342   15357   15375       1
   15354   15369   15390   15408       1   15351   15339   15348   15366       1
   15351   15339   15348   15369       1   15348   15366   15384   15405       1
   15348   15369   15354   15372       1   15348   15369   15390   15408       1
   15345   15336   15339   15351       1   15345   15360   15381   15399       1
   15342   15336   15339   15351       1   15342   15336   15345   15363       1
   15339   15336   15345   15363       1   15339   15348   15366   15387       1
   15336   15342   15354   15372       1   15336   15342   15357   15375       1
   15546   15534   15540   15549       1   15543   15531   15540   15549       1
   15537   15525   15534   15540       1   15537   15525   15534   15546       1
   15534   15540   15531   15543       1   15531   15540   15534   15546       1
   15525   15534   15540   15549       1   15522   15504   15525   15537       1
   15522   15531   15540   15549       1   15519   15501   15522   15531       1
   15516   15498   15510   15528       1   15513   15492   15510   15528       1
   15507   15489   15504   15522       1   15507   15489   15504   15525       1
   15504   15522   15501   15519       1   15504   15522   15531   15543       1
   15504   15525   15534   15546       1   15501   15522   15531   15543       1
   15498   15510   15492   15513       1   15495   15474   15492   15510       1
   15495   15474   15492   15513       1   15492   15510   15498   15516       1
   15489   15504   15525   15537       1   15486   15468   15489   15507       1
   15483   15465   15486   15501       1   15480   15462   15477   15498       1
   15477   15456   15474   15495       1   15477   15498   15510   15528       1
   15474   15492   15510   15528       1   15471   15453   15468   15486       1
   15471   15453   15468   15489       1   15468   15486   15465   15483       1
   15468   15486   15501   15519       1   15465   15450   15462   15480       1
   15465   15486   15501   15519       1   15462   15450   15465   15483       1
   15462   15477   15498   15516       1   15459   15447   15456   15474       1
   15459   15447   15456   15477       1   15456   15474   15492   15513       1
   15456   15477   15462   15480       1   15456   15477   15498   15516       1
   15453   15444   15447   15459       1   15453   15468   15489   15507       1
   15450   15444   15447   15459       1   15450   15444   15453   15471       1
   15447   15444   15453   15471       1   15447   15456   15474   15495       1
   15444   15450   15462   15480       1   15444   15450   15465   15483       1
   15654   15642   15648   15657       1   15651   15639   15648   15657       1
   15645   15633   15642   15648       1   15645   15633   15642   15654       1
   15642   15648   15639   15651       1   15639   15648   15642   15654       1
   15633   15642   15648   15657       1   15630   15612   15633   15645       1
   15630   15639   15648   15657       1   15627   15609   15630   15639       1
   15624   15606   15618   15636       1   15621   15600   15618   15636       1
   15615   15597   15612   15630       1   15615   15597   15612   15633       1
   15612   15630   15609   15627       1   15612   15630   15639   15651       1
   15612   15633   15642   15654       1   15609   15630   15639   15651       1
   15606   15618   15600   15621       1   15603   15582   15600   15618       1
   15603   15582   15600   15621       1   15600   15618   15606   15624       1
   15597   15612   15633   15645       1   15594   15576   15597   15615       1
   15591   15573   15594   15609       1   15588   15570   15585   15606       1
   15585   15564   15582   15603       1   15585   15606   15618   15636       1
   15582   15600   15618   15636       1   15579   15561   15576   15594       1
   15579   15561   15576   15597       1   15576   15594   15573   15591       1
   15576   15594   15609   15627       1   15573   15558   15570   15588       1
   15573   15594   15609   15627       1   15570   15558   15573   15591       1
   15570   15585   15606   15624       1   15567   15555   15564   15582       1
   15567   15555   15564   15585       1   15564   15582   15600   15621       1
   15564   15585   15570   15588       1   15564   15585   15606   15624       1
   15561   15552   15555   15567       1   15561   15576   15597   15615       1
   15558   15552   15555   15567       1   15558   15552   15561   15579       1
   15555   15552   15561   15579       1   15555   15564   15582   15603       1
   15552   15558   15570   15588       1   15552   15558   15573   15591       1
   15762   15750   15756   15765       1   15759   15747   15756   15765       1
   15753   15741   15750   15756       1   15753   15741   15750   15762       1
   15750   15756   15747   15759       1   15747   15756   15750   15762       1
   15741   15750   15756   15765       1   15738   15720   15741   15753       1
   15738   15747   15756   15765       1   15735   15717   15738   15747       1
   15732   15714   15726   15744       1   15729   15708   15726   15744       1
   15723   15705   15720   15738       1   15723   15705   15720   15741       1
   15720   15738   15717   15735       1   15720   15738   15747   15759       1
   15720   15741   15750   15762       1   15717   15738   15747   15759       1
   15714   15726   15708   15729       1   15711   15690   15708   15726       1
   15711   15690   15708   15729       1   15708   15726   15714   15732       1
   15705   15720   15741   15753       1   15702   15684   15705   15723       1
   15699   15681   15702   15717       1   15696   15678   15693   15714       1
   15693   15672   15690   15711       1   15693   15714   15726   15744       1
   15690   15708   15726   15744       1   15687   15669   15684   15702       1
   15687   15669   15684   15705       1   15684   15702   15681   15699       1
   15684   15702   15717   15735       1   15681   15666   15678   15696       1
   15681   15702   15717   15735       1   15678   15666   15681   15699       1
   15678   15693   15714   15732       1   15675   15663   15672   15690       1
   15675   15663   15672   15693       1   15672   15690   15708   15729       1
   15672   15693   15678   15696       1   15672   15693   15714   15732       1
   15669   15660   15663   15675       1   15669   15684   15705   15723       1
   15666   15660   15663   15675       1   15666   15660   15669   15687       1
   15663   15660   15669   15687       1   15663   15672   15690   15711       1
   15660   15666   15678   15696       1   15660   15666   15681   15699       1
   15870   15858   15864   15873       1   15867   15855   15864   15873       1
   15861   15849   15858   15864       1   15861   15849   15858   15870       1
   15858   15864   15855   15867       1   15855   15864   15858   15870       1
   15849   15858   15864   15873       1   15846   15828   15849   15861       1
   15846   15855   15864   15873       1   15843   15825   15846   15855       1
   15840   15822   15834   15852       1   15837   15816   15834   15852       1
   15831   15813   15828   15846       1   15831   15813   15828   15849       1
   15828   15846   15825   15843       1   15828   15846   15855   15867       1
   15828   15849   15858   15870       1   15825   15846   15855   15867       1
   15822   15834   15816   15837       1   15819   15798   15816   15834       1
   15819   15798   15816   15837       1   15816   15834   15822   15840       1
   15813   15828   15849   15861       1   15810   15792   15813   15831       1
   15807   15789   15810   15825       1   15804   15786   15801   15822       1
   15801   15780   15798   15819       1   15801   15822   15834   15852       1
   15798   15816   15834   15852       1   15795   15777   15792   15810       1
   15795   15777   15792   15813       1   15792   15810   15789   15807       1
   15792   15810   15825   15843       1   15789   15774   15786   15804       1
   15789   15810   15825   15843       1   15786   15774   15789   15807       1
   15786   15801   15822   15840       1   15783   15771   15780   15798       1
   15783   15771   15780   15801       1   15780   15798   15816   15837       1
   15780   15801   15786   15804       1   15780   15801   15822   15840       1
   15777   15768   15771   15783       1   15777   15792   15813   15831       1
   15774   15768   15771   15783       1   15774   15768   15777   15795       1
   15771   15768   15777   15795       1   15771   15780   15798   15819       1
   15768   15774   15786   15804       1   15768   15774   15789   15807       1
   15978   15966   15972   15981       1   15975   15963   15972   15981       1
   15969   15957   15966   15972       1   15969   15957   15966   15978       1
   15966   15972   15963   15975       1   15963   15972   15966   15978       1
   15957   15966   15972   15981       1   15954   15936   15957   15969       1
   15954   15963   15972   15981       1   15951   15933   15954   15963       1
   15948   15930   15942   15960       1   15945   15924   15942   15960       1
   15939   15921   15936   15954       1   15939   15921   15936   15957       1
   15936   15954   15933   15951       1   15936   15954   15963   15975       1
   15936   15957   15966   15978       1   15933   15954   15963   15975       1
   15930   15942   15924   15945       1   15927   15906   15924   15942       1
   15927   15906   15924   15945       1   15924   15942   15930   15948       1
   15921   15936   15957   15969       1   15918   15900   15921   15939       1
   15915   15897   15918   15933       1   15912   15894   15909   15930       1
   15909   15888   15906   15927       1   15909   15930   15942   15960       1
   15906   15924   15942   15960       1   15903   15885   15900   15918       1
   15903   15885   15900   15921       1   15900   15918   15897   15915       1
   15900   15918   15933   15951       1   15897   15882   15894   15912       1
   15897   15918   15933   15951       1   15894   15882   15897   15915       1
   15894   15909   15930   15948       1   15891   15879   15888   15906       1
   15891   15879   15888   15909       1   15888   15906   15924   15945       1
   15888   15909   15894   15912       1   15888   15909   15930   15948       1
   15885   15876   15879   15891       1   15885   15900   15921   15939       1
   15882   15876   15879   15891       1   15882   15876   15885   15903       1
   15879   15876   15885   15903       1   15879   15888   15906   15927       1
   15876   15882   15894   15912       1   15876   15882   15897   15915       1
   16086   16074   16080   16089       1   16083   16071   16080   16089       1
   16077   16065   16074   16080       1   16077   16065   16074   16086       1
   16074   16080   16071   16083       1   16071   16080   16074   16086       1
   16065   16074   16080   16089       1   16062   16044   16065   16077       1
   16062   16071   16080   16089       1   16059   16041   16062   16071       1
   16056   16038   16050   16068       1   16053   16032   16050   16068       1
   16047   16029   16044   16062       1   16047   16029   16044   16065       1
   16044   16062   16041   16059       1   16044   16062   16071   16083       1
   16044   16065   16074   16086       1   16041   16062   16071   16083       1
   16038   16050   16032   16053       1   16035   16014   16032   16050       1
   16035   16014   16032   16053       1   16032   16050   16038   16056       1
   16029   16044   16065   16077       1   16026   16008   16029   16047       1
   16023   16005   16026   16041       1   16020   16002   16017   16038       1
   16017   15996   16014   16035       1   16017   16038   16050   16068       1
   16014   16032   16050   16068       1   16011   15993   16008   16026       1
   16011   15993   16008   16029       1   16008   16026   16005   16023       1
   16008   16026   16041   16059       1   16005   15990   16002   16020       1
   16005   16026   16041   16059       1   16002   15990   16005   16023       1
   16002   16017   16038   16056       1   15999   15987   15996   16014       1
   15999   15987   15996   16017       1   15996   16014   16032   16053       1
   15996   16017   16002   16020       1   15996   16017   16038   16056       1
   15993   15984   15987   15999       1   15993   16008   16029   16047       1
   15990   15984   15987   15999       1   15990   15984   15993   16011       1
   15987   15984   15993   16011       1   15987   15996   16014   16035       1
   15984   15990   16002   16020       1   15984   15990   16005   16023       1
   16194   16182   16188   16197       1   16191   16179   16188   16197       1
   16185   16173   16182   16188       1   16185   16173   16182   16194       1
   16182   16188   16179   16191       1   16179   16188   16182   16194       1
   16173   16182   16188   16197       1   16170   16152   16173   16185       1
   16170   16179   16188   16197       1   16167   16149   16170   16179       1
   16164   16146   16158   16176       1   16161   16140   16158   16176       1
   16155   16137   16152   16170       1   16155   16137   16152   16173       1
   16152   16170   16149   16167       1   16152   16170   16179   16191       1
   16152   16173   16182   16194       1   16149   16170   16179   16191       1
   16146   16158   16140   16161       1   16143   16122   16140   16158       1
   16143   16122   16140   16161       1   16140   16158   16146   16164       1
   16137   16152   16173   16185       1   16134   16116   16137   16155       1
   16131   16113   16134   16149       1   16128   16110   16125   16146       1
   16125   16104   16122   16143       1   16125   16146   16158   16176       1
   16122   16140   16158   16176       1   16119   16101   16116   16134       1
   16119   16101   16116   16137       1   16116   16134   16113   16131       1
   16116   16134   16149   16167       1   16113   16098   16110   16128       1
   16113   16134   16149   16167       1   16110   16098   16113   16131       1
   16110   16125   16146   16164       1   16107   16095   16104   16122       1
   16107   16095   16104   16125       1   16104   16122   16140   16161       1
   16104   16125   16110   16128       1   16104   16125   16146   16164       1
   16101   16092   16095   16107       1   16101   16116   16137   16155       1
   16098   16092   16095   16107       1   16098   16092   16101   16119       1
   16095   16092   16101   16119       1   16095   16104   16122   16143       1
   16092   16098   16110   16128       1   16092   16098   16113   16131       1
   16302   16290   16296   16305       1   16299   16287   16296   16305       1
   16293   16281   16290   16296       1   16293   16281   16290   16302       1
   16290   16296   16287   16299       1   16287   16296   16290   16302       1
   16281   16290   16296   16305       1   16278   16260   16281   16293       1
   16278   16287   16296   16305       1   16275   16257   16278   16287       1
   16272   16254   16266   16284       1   16269   16248   16266   16284       1
   16263   16245   16260   16278       1   16263   16245   16260   16281       1
   16260   16278   16257   16275       1   16260   16278   16287   16299       1
   16260   16281   16290   16302       1   16257   16278   16287   16299       1
   16254   16266   16248   16269       1   16251   16230   16248   16266       1
   16251   16230   16248   16269       1   16248   16266   16254   16272       1
   16245   16260   16281   16293       1   16242   16224   16245   16263       1
   16239   16221   16242   16257       1   16236   16218   16233   16254       1
   16233   16212   16230   16251       1   16233   16254   16266   16284       1
   16230   16248   16266   16284       1   16227   16209   16224   16242       1
   16227   16209   16224   16245       1   16224   16242   16221   16239       1
   16224   16242   16257   16275       1   16221   16206   16218   16236       1
   16221   16242   16257   16275       1   16218   16206   16221   16239       1
   16218   16233   16254   16272       1   16215   16203   16212   16230       1
   16215   16203   16212   16233       1   16212   16230   16248   16269       1
   16212   16233   16218   16236       1   16212   16233   16254   16272       1
   16209   16200   16203   16215       1   16209   16224   16245   16263       1
   16206   16200   16203   16215       1   16206   16200   16209   16227       1
   16203   16200   16209   16227       1   16203   16212   16230   16251       1
   16200   16206   16218   16236       1   16200   16206   16221   16239       1
   16410   16398   16404   16413       1   16407   16395   16404   16413       1
   16401   16389   16398   16404       1   16401   16389   16398   16410       1
   16398   16404   16395   16407       1   16395   16404   16398   16410       1
   16389   16398   16404   16413       1   16386   16368   16389   16401       1
   16386   16395   16404   16413       1   16383   16365   16386   16395       1
   16380   16362   16374   16392       1   16377   16356   16374   16392       1
   16371   16353   16368   16386       1   16371   16353   16368   16389       1
   16368   16386   16365   16383       1   16368   16386   16395   16407       1
   16368   16389   16398   16410       1   16365   16386   16395   16407       1
   16362   16374   16356   16377       1   16359   16338   16356   16374       1
   16359   16338   16356   16377       1   16356   16374   16362   16380       1
   16353   16368   16389   16401       1   16350   16332   16353   16371       1
   16347   16329   16350   16365       1   16344   16326   16341   16362       1
   16341   16320   16338   16359       1   16341   16362   16374   16392       1
   16338   16356   16374   16392       1   16335   16317   16332   16350       1
   16335   16317   16332   16353       1   16332   16350   16329   16347       1
   16332   16350   16365   16383       1   16329   16314   16326   16344       1
   16329   16350   16365   16383       1   16326   16314   16329   16347       1
   16326   16341   16362   16380       1   16323   16311   16320   16338       1
   16323   16311   16320   16341       1   16320   16338   16356   16377       1
   16320   16341   16326   16344       1   16320   16341   16362   16380       1
   16317   16308   16311   16323       1   16317   16332   16353   16371       1
   16314   16308   16311   16323       1   16314   16308   16317   16335       1
   16311   16308   16317   16335       1   16311   16320   16338   16359       1
   16308   16314   16326   16344       1   16308   16314   16329   16347       1
   16518   16506   16512   16521       1   16515   16503   16512   16521       1
   16509   16497   16506   16512       1   16509   16497   16506   16518       1
   16506   16512   16503   16515       1   16503   16512   16506   16518       1
   16497   16506   16512   16521       1   16494   16476   16497   16509       1
   16494   16503   16512   16521       1   16491   16473   16494   16503       1
   16488   16470   16482   16500       1   16485   16464   16482   16500       1
   16479   16461   16476   16494       1   16479   16461   16476   16497       1
   16476   16494   16473   16491       1   16476   16494   16503   16515       1
   16476   16497   16506   16518       1   16473   16494   16503   16515       1
   16470   16482   16464   16485       1   16467   16446   16464   16482       1
   16467   16446   16464   16485       1   16464   16482   16470   16488       1
   16461   16476   16497   16509       1   16458   16440   16461   16479       1
   16455   16437   16458   16473       1   16452   16434   16449   16470       1
   16449   16428   16446   16467       1   16449   16470   16482   16500       1
   16446   16464   16482   16500       1   16443   16425   16440   16458       1
   16443   16425   16440   16461       1   16440   16458   16437   16455       1
   16440   16458   16473   16491       1   16437   16422   16434   16452       1
   16437   16458   16473   16491       1   16434   16422   16437   16455       1
   16434   16449   16470   16488       1   16431   16419   16428   16446       1
   16431   16419   16428   16449       1   16428   16446   16464   16485       1
   16428   16449   16434   16452       1   16428   16449   16470   16488       1
   16425   16416   16419   16431       1   16425   16440   16461   16479       1
   16422   16416   16419   16431       1   16422   16416   16425   16443       1
   16419   16416   16425   16443       1   16419   16428   16446   16467       1
   16416   16422   16434   16452       1   16416   16422   16437   16455       1
   16626   16614   16620   16629       1   16623   16611   16620   16629       1
   16617   16605   16614   16620       1   16617   16605   16614   16626       1
   16614   16620   16611   16623       1   16611   16620   16614   16626       1
   16605   16614   16620   16629       1   16602   16584   16605   16617       1
   16602   16611   16620   16629       1   16599   16581   16602   16611       1
   16596   16578   16590   16608       1   16593   16572   16590   16608       1
   16587   16569   16584   16602       1   16587   16569   16584   16605       1
   16584   16602   16581   16599       1   16584   16602   16611   16623       1
   16584   16605   16614   16626       1   16581   16602   16611   16623       1
   16578   16590   16572   16593       1   16575   16554   16572   16590       1
   16575   16554   16572   16593       1   16572   16590   16578   16596       1
   16569   16584   16605   16617       1   16566   16548   16569   16587       1
   16563   16545   16566   16581       1   16560   16542   16557   16578       1
   16557   16536   16554   16575       1   16557   16578   16590   16608       1
   16554   16572   16590   16608       1   16551   16533   16548   16566       1
   16551   16533   16548   16569       1   16548   16566   16545   16563       1
   16548   16566   16581   16599       1   16545   16530   16542   16560       1
   16545   16566   16581   16599       1   16542   16530   16545   16563       1
   16542   16557   16578   16596       1   16539   16527   16536   16554       1
   16539   16527   16536   16557       1   16536   16554   16572   16593       1
   16536   16557   16542   16560       1   16536   16557   16578   16596       1
   16533   16524   16527   16539       1   16533   16548   16569   16587       1
   16530   16524   16527   16539       1   16530   16524   16533   16551       1
   16527   16524   16533   16551       1   16527   16536   16554   16575       1
   16524   16530   16542   16560       1   16524   16530   16545   16563       1
   16734   16722   16728   16737       1   16731   16719   16728   16737       1
   16725   16713   16722   16728       1   16725   16713   16722   16734       1
   16722   16728   16719   16731       1   16719   16728   16722   16734       1
   16713   16722   16728   16737       1   16710   16692   16713   16725       1
   16710   16719   16728   16737       1   16707   16689   16710   16719       1
   16704   16686   16698   16716       1   16701   16680   16698   16716       1
   16695   16677   16692   16710       1   16695   16677   16692   16713       1
   16692   16710   16689   16707       1   16692   16710   16719   16731       1
   16692   16713   16722   16734       1   16689   16710   16719   16731       1
   16686   16698   16680   16701       1   16683   16662   16680   16698       1
   16683   16662   16680   16701       1   16680   16698   16686   16704       1
   16677   16692   16713   16725       1   16674   16656   16677   16695       1
   16671   16653   16674   16689       1   16668   16650   16665   16686       1
   16665   16644   16662   16683       1   16665   16686   16698   16716       1
   16662   16680   16698   16716       1   16659   16641   16656   16674       1
   16659   16641   16656   16677       1   16656   16674   16653   16671       1
   16656   16674   16689   16707       1   16653   16638   16650   16668       1
   16653   16674   16689   16707       1   16650   16638   16653   16671       1
   16650   16665   16686   16704       1   16647   16635   16644   16662       1
   16647   16635   16644   16665       1   16644   16662   16680   16701       1
   16644   16665   16650   16668       1   16644   16665   16686   16704       1
   16641   16632   16635   16647       1   16641   16656   16677   16695       1
   16638   16632   16635   16647       1   16638   16632   16641   16659       1
   16635   16632   16641   16659       1   16635   16644   16662   16683       1
   16632   16638   16650   16668       1   16632   16638   16653   16671       1
   16842   16830   16836   16845       1   16839   16827   16836   16845       1
   16833   16821   16830   16836       1   16833   16821   16830   16842       1
   16830   16836   16827   16839       1   16827   16836   16830   16842       1
   16821   16830   16836   16845       1   16818   16800   16821   16833       1
   16818   16827   16836   16845       1   16815   16797   16818   16827       1
   16812   16794   16806   16824       1   16809   16788   16806   16824       1
   16803   16785   16800   16818       1   16803   16785   16800   16821       1
   16800   16818   16797   16815       1   16800   16818   16827   16839       1
   16800   16821   16830   16842       1   16797   16818   16827   16839       1
   16794   16806   16788   16809       1   16791   16770   16788   16806       1
   16791   16770   16788   16809       1   16788   16806   16794   16812       1
   16785   16800   16821   16833       1   16782   16764   16785   16803       1
   16779   16761   16782   16797       1   16776   16758   16773   16794       1
   16773   16752   16770   16791       1   16773   16794   16806   16824       1
   16770   16788   16806   16824       1   16767   16749   16764   16782       1
   16767   16749   16764   16785       1   16764   16782   16761   16779       1
   16764   16782   16797   16815       1   16761   16746   16758   16776       1
   16761   16782   16797   16815       1   16758   16746   16761   16779       1
   16758   16773   16794   16812       1   16755   16743   16752   16770       1
   16755   16743   16752   16773       1   16752   16770   16788   16809       1
   16752   16773   16758   16776       1   16752   16773   16794   16812       1
   16749   16740   16743   16755       1   16749   16764   16785   16803       1
   16746   16740   16743   16755       1   16746   16740   16749   16767       1
   16743   16740   16749   16767       1   16743   16752   16770   16791       1
   16740   16746   16758   16776       1   16740   16746   16761   16779       1
   16950   16938   16944   16953       1   16947   16935   16944   16953       1
   16941   16929   16938   16944       1   16941   16929   16938   16950       1
   16938   16944   16935   16947       1   16935   16944   16938   16950       1
   16929   16938   16944   16953       1   16926   16908   16929   16941       1
   16926   16935   16944   16953       1   16923   16905   16926   16935       1
   16920   16902   16914   16932       1   16917   16896   16914   16932       1
   16911   16893   16908   16926       1   16911   16893   16908   16929       1
   16908   16926   16905   16923       1   16908   16926   16935   16947       1
   16908   16929   16938   16950       1   16905   16926   16935   16947       1
   16902   16914   16896   16917       1   16899   16878   16896   16914       1
   16899   16878   16896   16917       1   16896   16914   16902   16920       1
   16893   16908   16929   16941       1   16890   16872   16893   16911       1
   16887   16869   16890   16905       1   16884   16866   16881   16902       1
   16881   16860   16878   16899       1   16881   16902   16914   16932       1
   16878   16896   16914   16932       1   16875   16857   16872   16890       1
   16875   16857   16872   16893       1   16872   16890   16869   16887       1
   16872   16890   16905   16923       1   16869   16854   16866   16884       1
   16869   16890   16905   16923       1   16866   16854   16869   16887       1
   16866   16881   16902   16920       1   16863   16851   16860   16878       1
   16863   16851   16860   16881       1   16860   16878   16896   16917       1
   16860   16881   16866   16884       1   16860   16881   16902   16920       1
   16857   16848   16851   16863       1   16857   16872   16893   16911       1
   16854   16848   16851   16863       1   16854   16848   16857   16875       1
   16851   16848   16857   16875       1   16851   16860   16878   16899       1
   16848   16854   16866   16884       1   16848   16854   16869   16887       1
   17058   17046   17052   17061       1   17055   17043   17052   17061       1
   17049   17037   17046   17052       1   17049   17037   17046   17058       1
   17046   17052   17043   17055       1   17043   17052   17046   17058       1
   17037   17046   17052   17061       1   17034   17016   17037   17049       1
   17034   17043   17052   17061       1   17031   17013   17034   17043       1
   17028   17010   17022   17040       1   17025   17004   17022   17040       1
   17019   17001   17016   17034       1   17019   17001   17016   17037       1
   17016   17034   17013   17031       1   17016   17034   17043   17055       1
   17016   17037   17046   17058       1   17013   17034   17043   17055       1
   17010   17022   17004   17025       1   17007   16986   17004   17022       1
   17007   16986   17004   17025       1   17004   17022   17010   17028       1
   17001   17016   17037   17049       1   16998   16980   17001   17019       1
   16995   16977   16998   17013       1   16992   16974   16989   17010       1
   16989   16968   16986   17007       1   16989   17010   17022   17040       1
   16986   17004   17022   17040       1   16983   16965   16980   16998       1
   16983   16965   16980   17001       1   16980   16998   16977   16995       1
   16980   16998   17013   17031       1   16977   16962   16974   16992       1
   16977   16998   17013   17031       1   16974   16962   16977   16995       1
   16974   16989   17010   17028       1   16971   16959   16968   16986       1
   16971   16959   16968   16989       1   16968   16986   17004   17025       1
   16968   16989   16974   16992       1   16968   16989   17010   17028       1
   16965   16956   16959   16971       1   16965   16980   17001   17019       1
   16962   16956   16959   16971       1   16962   16956   16965   16983       1
   16959   16956   16965   16983       1   16959   16968   16986   17007       1
   16956   16962   16974   16992       1   16956   16962   16977   16995       1
   17166   17154   17160   17169       1   17163   17151   17160   17169       1
   17157   17145   17154   17160       1   17157   17145   17154   17166       1
   17154   17160   17151   17163       1   17151   17160   17154   17166       1
   17145   17154   17160   17169       1   17142   17124   17145   17157       1
   17142   17151   17160   17169       1   17139   17121   17142   17151       1
   17136   17118   17130   17148       1   17133   17112   17130   17148       1
   17127   17109   17124   17142       1   17127   17109   17124   17145       1
   17124   17142   17121   17139       1   17124   17142   17151   17163       1
   17124   17145   17154   17166       1   17121   17142   17151   17163       1
   17118   17130   17112   17133       1   17115   17094   17112   17130       1
   17115   17094   17112   17133       1   17112   17130   17118   17136       1
   17109   17124   17145   17157       1   17106   17088   17109   17127       1
   17103   17085   17106   17121       1   17100   17082   17097   17118       1
   17097   17076   17094   17115       1   17097   17118   17130   17148       1
   17094   17112   17130   17148       1   17091   17073   17088   17106       1
   17091   17073   17088   17109       1   17088   17106   17085   17103       1
   17088   17106   17121   17139       1   17085   17070   17082   17100       1
   17085   17106   17121   17139       1   17082   17070   17085   17103       1
   17082   17097   17118   17136       1   17079   17067   17076   17094       1
   17079   17067   17076   17097       1   17076   17094   17112   17133       1
   17076   17097   17082   17100       1   17076   17097   17118   17136       1
   17073   17064   17067   17079       1   17073   17088   17109   17127       1
   17070   17064   17067   17079       1   17070   17064   17073   17091       1
   17067   17064   17073   17091       1   17067   17076   17094   17115       1
   17064   17070   17082   17100       1   17064   17070   17085   17103       1
   17274   17262   17268   17277       1   17271   17259   17268   17277       1
   17265   17253   17262   17268       1   17265   17253   17262   17274       1
   17262   17268   17259   17271       1   17259   17268   17262   17274       1
   17253   17262   17268   17277       1   17250   17232   17253   17265       1
   17250   17259   17268   17277       1   17247   17229   17250   17259       1
   17244   17226   17238   17256       1   17241   17220   17238   17256       1
   17235   17217   17232   17250       1   17235   17217   17232   17253       1
   17232   17250   17229   17247       1   17232   17250   17259   17271       1
   17232   17253   17262   17274       1   17229   17250   17259   17271       1
   17226   17238   17220   17241       1   17223   17202   17220   17238       1
   17223   17202   17220   17241       1   17220   17238   17226   17244       1
   17217   17232   17253   17265       1   17214   17196   17217   17235       1
   17211   17193   17214   17229       1   17208   17190   17205   17226       1
   17205   17184   17202   17223       1   17205   17226   17238   17256       1
   17202   17220   17238   17256       1   17199   17181   17196   17214       1
   17199   17181   17196   17217       1   17196   17214   17193   17211       1
   17196   17214   17229   17247       1   17193   17178   17190   17208       1
   17193   17214   17229   17247       1   17190   17178   17193   17211       1
   17190   17205   17226   17244       1   17187   17175   17184   17202       1
   17187   17175   17184   17205       1   17184   17202   17220   17241       1
   17184   17205   17190   17208       1   17184   17205   17226   17244       1
   17181   17172   17175   17187       1   17181   17196   17217   17235       1
   17178   17172   17175   17187       1   17178   17172   17181   17199       1
   17175   17172   17181   17199       1   17175   17184   17202   17223       1
   17172   17178   17190   17208       1   17172   17178   17193   17211       1
   17382   17370   17376   17385       1   17379   17367   17376   17385       1
   17373   17361   17370   17376       1   17373   17361   17370   17382       1
   17370   17376   17367   17379       1   17367   17376   17370   17382       1
   17361   17370   17376   17385       1   17358   17340   17361   17373       1
   17358   17367   17376   17385       1   17355   17337   17358   17367       1
   17352   17334   17346   17364       1   17349   17328   17346   17364       1
   17343   17325   17340   17358       1   17343   17325   17340   17361       1
   17340   17358   17337   17355       1   17340   17358   17367   17379       1
   17340   17361   17370   17382       1   17337   17358   17367   17379       1
   17334   17346   17328   17349       1   17331   17310   17328   17346       1
   17331   17310   17328   17349       1   17328   17346   17334   17352       1
   17325   17340   17361   17373       1   17322   17304   17325   17343       1
   17319   17301   17322   17337       1   17316   17298   17313   17334       1
   17313   17292   17310   17331       1   17313   17334   17346   17364       1
   17310   17328   17346   17364       1   17307   17289   17304   17322       1
   17307   17289   17304   17325       1   17304   17322   17301   17319       1
   17304   17322   17337   17355       1   17301   17286   17298   17316       1
   17301   17322   17337   17355       1   17298   17286   17301   17319       1
   17298   17313   17334   17352       1   17295   17283   17292   17310       1
   17295   17283   17292   17313       1   17292   17310   17328   17349       1
   17292   17313   17298   17316       1   17292   17313   17334   17352       1
   17289   17280   17283   17295       1   17289   17304   17325   17343       1
   17286   17280   17283   17295       1   17286   17280   17289   17307       1
   17283   17280   17289   17307       1   17283   17292   17310   17331       1
   17280   17286   17298   17316       1   17280   17286   17301   17319       1
   17490   17478   17484   17493       1   17487   17475   17484   17493       1
   17481   17469   17478   17484       1   17481   17469   17478   17490       1
   17478   17484   17475   17487       1   17475   17484   17478   17490       1
   17469   17478   17484   17493       1   17466   17448   17469   17481       1
   17466   17475   17484   17493       1   17463   17445   17466   17475       1
   17460   17442   17454   17472       1   17457   17436   17454   17472       1
   17451   17433   17448   17466       1   17451   17433   17448   17469       1
   17448   17466   17445   17463       1   17448   17466   17475   17487       1
   17448   17469   17478   17490       1   17445   17466   17475   17487       1
   17442   17454   17436   17457       1   17439   17418   17436   17454       1
   17439   17418   17436   17457       1   17436   17454   17442   17460       1
   17433   17448   17469   17481       1   17430   17412   17433   17451       1
   17427   17409   17430   17445       1   17424   17406   17421   17442       1
   17421   17400   17418   17439       1   17421   17442   17454   17472       1
   17418   17436   17454   17472       1   17415   17397   17412   17430       1
   17415   17397   17412   17433       1   17412   17430   17409   17427       1
   17412   17430   17445   17463       1   17409   17394   17406   17424       1
   17409   17430   17445   17463       1   17406   17394   17409   17427       1
   17406   17421   17442   17460       1   17403   17391   17400   17418       1
   17403   17391   17400   17421       1   17400   17418   17436   17457       1
   17400   17421   17406   17424       1   17400   17421   17442   17460       1
   17397   17388   17391   17403       1   17397   17412   17433   17451       1
   17394   17388   17391   17403       1   17394   17388   17397   17415       1
   17391   17388   17397   17415       1   17391   17400   17418   17439       1
   17388   17394   17406   17424       1   17388   17394   17409   17427       1
   17598   17586   17592   17601       1   17595   17583   17592   17601       1
   17589   17577   17586   17592       1   17589   17577   17586   17598       1
   17586   17592   17583   17595       1   17583   17592   17586   17598       1
   17577   17586   17592   17601       1   17574   17556   17577   17589       1
   17574   17583   17592   17601       1   17571   17553   17574   17583       1
   17568   17550   17562   17580       1   17565   17544   17562   17580       1
   17559   17541   17556   17574       1   17559   17541   17556   17577       1
   17556   17574   17553   17571       1   17556   17574   17583   17595       1
   17556   17577   17586   17598       1   17553   17574   17583   17595       1
   17550   17562   17544   17565       1   17547   17526   17544   17562       1
   17547   17526   17544   17565       1   17544   17562   17550   17568       1
   17541   17556   17577   17589       1   17538   17520   17541   17559       1
   17535   17517   17538   17553       1   17532   17514   17529   17550       1
   17529   17508   17526   17547       1   17529   17550   17562   17580       1
   17526   17544   17562   17580       1   17523   17505   17520   17538       1
   17523   17505   17520   17541       1   17520   17538   17517   17535       1
   17520   17538   17553   17571       1   17517   17502   17514   17532       1
   17517   17538   17553   17571       1   17514   17502   17517   17535       1
   17514   17529   17550   17568       1   17511   17499   17508   17526       1
   17511   17499   17508   17529       1   17508   17526   17544   17565       1
   17508   17529   17514   17532       1   17508   17529   17550   17568       1
   17505   17496   17499   17511       1   17505   17520   17541   17559       1
   17502   17496   17499   17511       1   17502   17496   17505   17523       1
   17499   17496   17505   17523       1   17499   17508   17526   17547       1
   17496   17502   17514   17532       1   17496   17502   17517   17535       1
   17706   17694   17700   17709       1   17703   17691   17700   17709       1
   17697   17685   17694   17700       1   17697   17685   17694   17706       1
   17694   17700   17691   17703       1   17691   17700   17694   17706       1
   17685   17694   17700   17709       1   17682   17664   17685   17697       1
   17682   17691   17700   17709       1   17679   17661   17682   17691       1
   17676   17658   17670   17688       1   17673   17652   17670   17688       1
   17667   17649   17664   17682       1   17667   17649   17664   17685       1
   17664   17682   17661   17679       1   17664   17682   17691   17703       1
   17664   17685   17694   17706       1   17661   17682   17691   17703       1
   17658   17670   17652   17673       1   17655   17634   17652   17670       1
   17655   17634   17652   17673       1   17652   17670   17658   17676       1
   17649   17664   17685   17697       1   17646   17628   17649   17667       1
   17643   17625   17646   17661       1   17640   17622   17637   17658       1
   17637   17616   17634   17655       1   17637   17658   17670   17688       1
   17634   17652   17670   17688       1   17631   17613   17628   17646       1
   17631   17613   17628   17649       1   17628   17646   17625   17643       1
   17628   17646   17661   17679       1   17625   17610   17622   17640       1
   17625   17646   17661   17679       1   17622   17610   17625   17643       1
   17622   17637   17658   17676       1   17619   17607   17616   17634       1
   17619   17607   17616   17637       1   17616   17634   17652   17673       1
   17616   17637   17622   17640       1   17616   17637   17658   17676       1
   17613   17604   17607   17619       1   17613   17628   17649   17667       1
   17610   17604   17607   17619       1   17610   17604   17613   17631       1
   17607   17604   17613   17631       1   17607   17616   17634   17655       1
   17604   17610   17622   17640       1   17604   17610   17625   17643       1
   17814   17802   17808   17817       1   17811   17799   17808   17817       1
   17805   17793   17802   17808       1   17805   17793   17802   17814       1
   17802   17808   17799   17811       1   17799   17808   17802   17814       1
   17793   17802   17808   17817       1   17790   17772   17793   17805       1
   17790   17799   17808   17817       1   17787   17769   17790   17799       1
   17784   17766   17778   17796       1   17781   17760   17778   17796       1
   17775   17757   17772   17790       1   17775   17757   17772   17793       1
   17772   17790   17769   17787       1   17772   17790   17799   17811       1
   17772   17793   17802   17814       1   17769   17790   17799   17811       1
   17766   17778   17760   17781       1   17763   17742   17760   17778       1
   17763   17742   17760   17781       1   17760   17778   17766   17784       1
   17757   17772   17793   17805       1   17754   17736   17757   17775       1
   17751   17733   17754   17769       1   17748   17730   17745   17766       1
   17745   17724   17742   17763       1   17745   17766   17778   17796       1
   17742   17760   17778   17796       1   17739   17721   17736   17754       1
   17739   17721   17736   17757       1   17736   17754   17733   17751       1
   17736   17754   17769   17787       1   17733   17718   17730   17748       1
   17733   17754   17769   17787       1   17730   17718   17733   17751       1
   17730   17745   17766   17784       1   17727   17715   17724   17742       1
   17727   17715   17724   17745       1   17724   17742   17760   17781       1
   17724   17745   17730   17748       1   17724   17745   17766   17784       1
   17721   17712   17715   17727       1   17721   17736   17757   17775       1
   17718   17712   17715   17727       1   17718   17712   17721   17739       1
   17715   17712   17721   17739       1   17715   17724   17742   17763       1
   17712   17718   17730   17748       1   17712   17718   17733   17751       1
   17922   17910   17916   17925       1   17919   17907   17916   17925       1
   17913   17901   17910   17916       1   17913   17901   17910   17922       1
   17910   17916   17907   17919       1   17907   17916   17910   17922       1
   17901   17910   17916   17925       1   17898   17880   17901   17913       1
   17898   17907   17916   17925       1   17895   17877   17898   17907       1
   17892   17874   17886   17904       1   17889   17868   17886   17904       1
   17883   17865   17880   17898       1   17883   17865   17880   17901       1
   17880   17898   17877   17895       1   17880   17898   17907   17919       1
   17880   17901   17910   17922       1   17877   17898   17907   17919       1
   17874   17886   17868   17889       1   17871   17850   17868   17886       1
   17871   17850   17868   17889       1   17868   17886   17874   17892       1
   17865   17880   17901   17913       1   17862   17844   17865   17883       1
   17859   17841   17862   17877       1   17856   17838   17853   17874       1
   17853   17832   17850   17871       1   17853   17874   17886   17904       1
   17850   17868   17886   17904       1   17847   17829   17844   17862       1
   17847   17829   17844   17865       1   17844   17862   17841   17859       1
   17844   17862   17877   17895       1   17841   17826   17838   17856       1
   17841   17862   17877   17895       1   17838   17826   17841   17859       1
   17838   17853   17874   17892       1   17835   17823   17832   17850       1
   17835   17823   17832   17853       1   17832   17850   17868   17889       1
   17832   17853   17838   17856       1   17832   17853   17874   17892       1
   17829   17820   17823   17835       1   17829   17844   17865   17883       1
   17826   17820   17823   17835       1   17826   17820   17829   17847       1
   17823   17820   17829   17847       1   17823   17832   17850   17871       1
   17820   17826   17838   17856       1   17820   17826   17841   17859       1
   18030   18018   18024   18033       1   18027   18015   18024   18033       1
   18021   18009   18018   18024       1   18021   18009   18018   18030       1
   18018   18024   18015   18027       1   18015   18024   18018   18030       1
   18009   18018   18024   18033       1   18006   17988   18009   18021       1
   18006   18015   18024   18033       1   18003   17985   18006   18015       1
   18000   17982   17994   18012       1   17997   17976   17994   18012       1
   17991   17973   17988   18006       1   17991   17973   17988   18009       1
   17988   18006   17985   18003       1   17988   18006   18015   18027       1
   17988   18009   18018   18030       1   17985   18006   18015   18027       1
   17982   17994   17976   17997       1   17979   17958   17976   17994       1
   17979   17958   17976   17997       1   17976   17994   17982   18000       1
   17973   17988   18009   18021       1   17970   17952   17973   17991       1
   17967   17949   17970   17985       1   17964   17946   17961   17982       1
   17961   17940   17958   17979       1   17961   17982   17994   18012       1
   17958   17976   17994   18012       1   17955   17937   17952   17970       1
   17955   17937   17952   17973       1   17952   17970   17949   17967       1
   17952   17970   17985   18003       1   17949   17934   17946   17964       1
   17949   17970   17985   18003       1   17946   17934   17949   17967       1
   17946   17961   17982   18000       1   17943   17931   17940   17958       1
   17943   17931   17940   17961       1   17940   17958   17976   17997       1
   17940   17961   17946   17964       1   17940   17961   17982   18000       1
   17937   17928   17931   17943       1   17937   17952   17973   17991       1
   17934   17928   17931   17943       1   17934   17928   17937   17955       1
   17931   17928   17937   17955       1   17931   17940   17958   17979       1
   17928   17934   17946   17964       1   17928   17934   17949   17967       1
   18138   18126   18132   18141       1   18135   18123   18132   18141       1
   18129   18117   18126   18132       1   18129   18117   18126   18138       1
   18126   18132   18123   18135       1   18123   18132   18126   18138       1
   18117   18126   18132   18141       1   18114   18096   18117   18129       1
   18114   18123   18132   18141       1   18111   18093   18114   18123       1
   18108   18090   18102   18120       1   18105   18084   18102   18120       1
   18099   18081   18096   18114       1   18099   18081   18096   18117       1
   18096   18114   18093   18111       1   18096   18114   18123   18135       1
   18096   18117   18126   18138       1   18093   18114   18123   18135       1
   18090   18102   18084   18105       1   18087   18066   18084   18102       1
   18087   18066   18084   18105       1   18084   18102   18090   18108       1
   18081   18096   18117   18129       1   18078   18060   18081   18099       1
   18075   18057   18078   18093       1   18072   18054   18069   18090       1
   18069   18048   18066   18087       1   18069   18090   18102   18120       1
   18066   18084   18102   18120       1   18063   18045   18060   18078       1
   18063   18045   18060   18081       1   18060   18078   18057   18075       1
   18060   18078   18093   18111       1   18057   18042   18054   18072       1
   18057   18078   18093   18111       1   18054   18042   18057   18075       1
   18054   18069   18090   18108       1   18051   18039   18048   18066       1
   18051   18039   18048   18069       1   18048   18066   18084   18105       1
   18048   18069   18054   18072       1   18048   18069   18090   18108       1
   18045   18036   18039   18051       1   18045   18060   18081   18099       1
   18042   18036   18039   18051       1   18042   18036   18045   18063       1
   18039   18036   18045   18063       1   18039   18048   18066   18087       1
   18036   18042   18054   18072       1   18036   18042   18057   18075       1
   18246   18234   18240   18249       1   18243   18231   18240   18249       1
   18237   18225   18234   18240       1   18237   18225   18234   18246       1
   18234   18240   18231   18243       1   18231   18240   18234   18246       1
   18225   18234   18240   18249       1   18222   18204   18225   18237       1
   18222   18231   18240   18249       1   18219   18201   18222   18231       1
   18216   18198   18210   18228       1   18213   18192   18210   18228       1
   18207   18189   18204   18222       1   18207   18189   18204   18225       1
   18204   18222   18201   18219       1   18204   18222   18231   18243       1
   18204   18225   18234   18246       1   18201   18222   18231   18243       1
   18198   18210   18192   18213       1   18195   18174   18192   18210       1
   18195   18174   18192   18213       1   18192   18210   18198   18216       1
   18189   18204   18225   18237       1   18186   18168   18189   18207       1
   18183   18165   18186   18201       1   18180   18162   18177   18198       1
   18177   18156   18174   18195       1   18177   18198   18210   18228       1
   18174   18192   18210   18228       1   18171   18153   18168   18186       1
   18171   18153   18168   18189       1   18168   18186   18165   18183       1
   18168   18186   18201   18219       1   18165   18150   18162   18180       1
   18165   18186   18201   18219       1   18162   18150   18165   18183       1
   18162   18177   18198   18216       1   18159   18147   18156   18174       1
   18159   18147   18156   18177       1   18156   18174   18192   18213       1
   18156   18177   18162   18180       1   18156   18177   18198   18216       1
   18153   18144   18147   18159       1   18153   18168   18189   18207       1
   18150   18144   18147   18159       1   18150   18144   18153   18171       1
   18147   18144   18153   18171       1   18147   18156   18174   18195       1
   18144   18150   18162   18180       1   18144   18150   18165   18183       1
   18354   18342   18348   18357       1   18351   18339   18348   18357       1
   18345   18333   18342   18348       1   18345   18333   18342   18354       1
   18342   18348   18339   18351       1   18339   18348   18342   18354       1
   18333   18342   18348   18357       1   18330   18312   18333   18345       1
   18330   18339   18348   18357       1   18327   18309   18330   18339       1
   18324   18306   18318   18336       1   18321   18300   18318   18336       1
   18315   18297   18312   18330       1   18315   18297   18312   18333       1
   18312   18330   18309   18327       1   18312   18330   18339   18351       1
   18312   18333   18342   18354       1   18309   18330   18339   18351       1
   18306   18318   18300   18321       1   18303   18282   18300   18318       1
   18303   18282   18300   18321       1   18300   18318   18306   18324       1
   18297   18312   18333   18345       1   18294   18276   18297   18315       1
   18291   18273   18294   18309       1   18288   18270   18285   18306       1
   18285   18264   18282   18303       1   18285   18306   18318   18336       1
   18282   18300   18318   18336       1   18279   18261   18276   18294       1
   18279   18261   18276   18297       1   18276   18294   18273   18291       1
   18276   18294   18309   18327       1   18273   18258   18270   18288       1
   18273   18294   18309   18327       1   18270   18258   18273   18291       1
   18270   18285   18306   18324       1   18267   18255   18264   18282       1
   18267   18255   18264   18285       1   18264   18282   18300   18321       1
   18264   18285   18270   18288       1   18264   18285   18306   18324       1
   18261   18252   18255   18267       1   18261   18276   18297   18315       1
   18258   18252   18255   18267       1   18258   18252   18261   18279       1
   18255   18252   18261   18279       1   18255   18264   18282   18303       1
   18252   18258   18270   18288       1   18252   18258   18273   18291       1
   18462   18450   18456   18465       1   18459   18447   18456   18465       1
   18453   18441   18450   18456       1   18453   18441   18450   18462       1
   18450   18456   18447   18459       1   18447   18456   18450   18462       1
   18441   18450   18456   18465       1   18438   18420   18441   18453       1
   18438   18447   18456   18465       1   18435   18417   18438   18447       1
   18432   18414   18426   18444       1   18429   18408   18426   18444       1
   18423   18405   18420   18438       1   18423   18405   18420   18441       1
   18420   18438   18417   18435       1   18420   18438   18447   18459       1
   18420   18441   18450   18462       1   18417   18438   18447   18459       1
   18414   18426   18408   18429       1   18411   18390   18408   18426       1
   18411   18390   18408   18429       1   18408   18426   18414   18432       1
   18405   18420   18441   18453       1   18402   18384   18405   18423       1
   18399   18381   18402   18417       1   18396   18378   18393   18414       1
   18393   18372   18390   18411       1   18393   18414   18426   18444       1
   18390   18408   18426   18444       1   18387   18369   18384   18402       1
   18387   18369   18384   18405       1   18384   18402   18381   18399       1
   18384   18402   18417   18435       1   18381   18366   18378   18396       1
   18381   18402   18417   18435       1   18378   18366   18381   18399       1
   18378   18393   18414   18432       1   18375   18363   18372   18390       1
   18375   18363   18372   18393       1   18372   18390   18408   18429       1
   18372   18393   18378   18396       1   18372   18393   18414   18432       1
   18369   18360   18363   18375       1   18369   18384   18405   18423       1
   18366   18360   18363   18375       1   18366   18360   18369   18387       1
   18363   18360   18369   18387       1   18363   18372   18390   18411       1
   18360   18366   18378   18396       1   18360   18366   18381   18399       1
   18570   18558   18564   18573       1   18567   18555   18564   18573       1
   18561   18549   18558   18564       1   18561   18549   18558   18570       1
   18558   18564   18555   18567       1   18555   18564   18558   18570       1
   18549   18558   18564   18573       1   18546   18528   18549   18561       1
   18546   18555   18564   18573       1   18543   18525   18546   18555       1
   18540   18522   18534   18552       1   18537   18516   18534   18552       1
   18531   18513   18528   18546       1   18531   18513   18528   18549       1
   18528   18546   18525   18543       1   18528   18546   18555   18567       1
   18528   18549   18558   18570       1   18525   18546   18555   18567       1
   18522   18534   18516   18537       1   18519   18498   18516   18534       1
   18519   18498   18516   18537       1   18516   18534   18522   18540       1
   18513   18528   18549   18561       1   18510   18492   18513   18531       1
   18507   18489   18510   18525       1   18504   18486   18501   18522       1
   18501   18480   18498   18519       1   18501   18522   18534   18552       1
   18498   18516   18534   18552       1   18495   18477   18492   18510       1
   18495   18477   18492   18513       1   18492   18510   18489   18507       1
   18492   18510   18525   18543       1   18489   18474   18486   18504       1
   18489   18510   18525   18543       1   18486   18474   18489   18507       1
   18486   18501   18522   18540       1   18483   18471   18480   18498       1
   18483   18471   18480   18501       1   18480   18498   18516   18537       1
   18480   18501   18486   18504       1   18480   18501   18522   18540       1
   18477   18468   18471   18483       1   18477   18492   18513   18531       1
   18474   18468   18471   18483       1   18474   18468   18477   18495       1
   18471   18468   18477   18495       1   18471   18480   18498   18519       1
   18468   18474   18486   18504       1   18468   18474   18489   18507       1
   18678   18666   18672   18681       1   18675   18663   18672   18681       1
   18669   18657   18666   18672       1   18669   18657   18666   18678       1
   18666   18672   18663   18675       1   18663   18672   18666   18678       1
   18657   18666   18672   18681       1   18654   18636   18657   18669       1
   18654   18663   18672   18681       1   18651   18633   18654   18663       1
   18648   18630   18642   18660       1   18645   18624   18642   18660       1
   18639   18621   18636   18654       1   18639   18621   18636   18657       1
   18636   18654   18633   18651       1   18636   18654   18663   18675       1
   18636   18657   18666   18678       1   18633   18654   18663   18675       1
   18630   18642   18624   18645       1   18627   18606   18624   18642       1
   18627   18606   18624   18645       1   18624   18642   18630   18648       1
   18621   18636   18657   18669       1   18618   18600   18621   18639       1
   18615   18597   18618   18633       1   18612   18594   18609   18630       1
   18609   18588   18606   18627       1   18609   18630   18642   18660       1
   18606   18624   18642   18660       1   18603   18585   18600   18618       1
   18603   18585   18600   18621       1   18600   18618   18597   18615       1
   18600   18618   18633   18651       1   18597   18582   18594   18612       1
   18597   18618   18633   18651       1   18594   18582   18597   18615       1
   18594   18609   18630   18648       1   18591   18579   18588   18606       1
   18591   18579   18588   18609       1   18588   18606   18624   18645       1
   18588   18609   18594   18612       1   18588   18609   18630   18648       1
   18585   18576   18579   18591       1   18585   18600   18621   18639       1
   18582   18576   18579   18591       1   18582   18576   18585   18603       1
   18579   18576   18585   18603       1   18579   18588   18606   18627       1
   18576   18582   18594   18612       1   18576   18582   18597   18615       1
   18786   18774   18780   18789       1   18783   18771   18780   18789       1
   18777   18765   18774   18780       1   18777   18765   18774   18786       1
   18774   18780   18771   18783       1   18771   18780   18774   18786       1
   18765   18774   18780   18789       1   18762   18744   18765   18777       1
   18762   18771   18780   18789       1   18759   18741   18762   18771       1
   18756   18738   18750   18768       1   18753   18732   18750   18768       1
   18747   18729   18744   18762       1   18747   18729   18744   18765       1
   18744   18762   18741   18759       1   18744   18762   18771   18783       1
   18744   18765   18774   18786       1   18741   18762   18771   18783       1
   18738   18750   18732   18753       1   18735   18714   18732   18750       1
   18735   18714   18732   18753       1   18732   18750   18738   18756       1
   18729   18744   18765   18777       1   18726   18708   18729   18747       1
   18723   18705   18726   18741       1   18720   18702   18717   18738       1
   18717   18696   18714   18735       1   18717   18738   18750   18768       1
   18714   18732   18750   18768       1   18711   18693   18708   18726       1
   18711   18693   18708   18729       1   18708   18726   18705   18723       1
   18708   18726   18741   18759       1   18705   18690   18702   18720       1
   18705   18726   18741   18759       1   18702   18690   18705   18723       1
   18702   18717   18738   18756       1   18699   18687   18696   18714       1
   18699   18687   18696   18717       1   18696   18714   18732   18753       1
   18696   18717   18702   18720       1   18696   18717   18738   18756       1
   18693   18684   18687   18699       1   18693   18708   18729   18747       1
   18690   18684   18687   18699       1   18690   18684   18693   18711       1
   18687   18684   18693   18711       1   18687   18696   18714   18735       1
   18684   18690   18702   18720       1   18684   18690   18705   18723       1
   18894   18882   18888   18897       1   18891   18879   18888   18897       1
   18885   18873   18882   18888       1   18885   18873   18882   18894       1
   18882   18888   18879   18891       1   18879   18888   18882   18894       1
   18873   18882   18888   18897       1   18870   18852   18873   18885       1
   18870   18879   18888   18897       1   18867   18849   18870   18879       1
   18864   18846   18858   18876       1   18861   18840   18858   18876       1
   18855   18837   18852   18870       1   18855   18837   18852   18873       1
   18852   18870   18849   18867       1   18852   18870   18879   18891       1
   18852   18873   18882   18894       1   18849   18870   18879   18891       1
   18846   18858   18840   18861       1   18843   18822   18840   18858       1
   18843   18822   18840   18861       1   18840   18858   18846   18864       1
   18837   18852   18873   18885       1   18834   18816   18837   18855       1
   18831   18813   18834   18849       1   18828   18810   18825   18846       1
   18825   18804   18822   18843       1   18825   18846   18858   18876       1
   18822   18840   18858   18876       1   18819   18801   18816   18834       1
   18819   18801   18816   18837       1   18816   18834   18813   18831       1
   18816   18834   18849   18867       1   18813   18798   18810   18828       1
   18813   18834   18849   18867       1   18810   18798   18813   18831       1
   18810   18825   18846   18864       1   18807   18795   18804   18822       1
   18807   18795   18804   18825       1   18804   18822   18840   18861       1
   18804   18825   18810   18828       1   18804   18825   18846   18864       1
   18801   18792   18795   18807       1   18801   18816   18837   18855       1
   18798   18792   18795   18807       1   18798   18792   18801   18819       1
   18795   18792   18801   18819       1   18795   18804   18822   18843       1
   18792   18798   18810   18828       1   18792   18798   18813   18831       1
   19002   18990   18996   19005       1   18999   18987   18996   19005       1
   18993   18981   18990   18996       1   18993   18981   18990   19002       1
   18990   18996   18987   18999       1   18987   18996   18990   19002       1
   18981   18990   18996   19005       1   18978   18960   18981   18993       1
   18978   18987   18996   19005       1   18975   18957   18978   18987       1
   18972   18954   18966   18984       1   18969   18948   18966   18984       1
   18963   18945   18960   18978       1   18963   18945   18960   18981       1
   18960   18978   18957   18975       1   18960   18978   18987   18999       1
   18960   18981   18990   19002       1   18957   18978   18987   18999       1
   18954   18966   18948   18969       1   18951   18930   18948   18966       1
   18951   18930   18948   18969       1   18948   18966   18954   18972       1
   18945   18960   18981   18993       1   18942   18924   18945   18963       1
   18939   18921   18942   18957       1   18936   18918   18933   18954       1
   18933   18912   18930   18951       1   18933   18954   18966   18984       1
   18930   18948   18966   18984       1   18927   18909   18924   18942       1
   18927   18909   18924   18945       1   18924   18942   18921   18939       1
   18924   18942   18957   18975       1   18921   18906   18918   18936       1
   18921   18942   18957   18975       1   18918   18906   18921   18939       1
   18918   18933   18954   18972       1   18915   18903   18912   18930       1
   18915   18903   18912   18933       1   18912   18930   18948   18969       1
   18912   18933   18918   18936       1   18912   18933   18954   18972       1
   18909   18900   18903   18915       1   18909   18924   18945   18963       1
   18906   18900   18903   18915       1   18906   18900   18909   18927       1
   18903   18900   18909   18927       1   18903   18912   18930   18951       1
   18900   18906   18918   18936       1   18900   18906   18921   18939       1
   19110   19098   19104   19113       1   19107   19095   19104   19113       1
   19101   19089   19098   19104       1   19101   19089   19098   19110       1
   19098   19104   19095   19107       1   19095   19104   19098   19110       1
   19089   19098   19104   19113       1   19086   19068   19089   19101       1
   19086   19095   19104   19113       1   19083   19065   19086   19095       1
   19080   19062   19074   19092       1   19077   19056   19074   19092       1
   19071   19053   19068   19086       1   19071   19053   19068   19089       1
   19068   19086   19065   19083       1   19068   19086   19095   19107       1
   19068   19089   19098   19110       1   19065   19086   19095   19107       1
   19062   19074   19056   19077       1   19059   19038   19056   19074       1
   19059   19038   19056   19077       1   19056   19074   19062   19080       1
   19053   19068   19089   19101       1   19050   19032   19053   19071       1
   19047   19029   19050   19065       1   19044   19026   19041   19062       1
   19041   19020   19038   19059       1   19041   19062   19074   19092       1
   19038   19056   19074   19092       1   19035   19017   19032   19050       1
   19035   19017   19032   19053       1   19032   19050   19029   19047       1
   19032   19050   19065   19083       1   19029   19014   19026   19044       1
   19029   19050   19065   19083       1   19026   19014   19029   19047       1
   19026   19041   19062   19080       1   19023   19011   19020   19038       1
   19023   19011   19020   19041       1   19020   19038   19056   19077       1
   19020   19041   19026   19044       1   19020   19041   19062   19080       1
   19017   19008   19011   19023       1   19017   19032   19053   19071       1
   19014   19008   19011   19023       1   19014   19008   19017   19035       1
   19011   19008   19017   19035       1   19011   19020   19038   19059       1
   19008   19014   19026   19044       1   19008   19014   19029   19047       1
   19218   19206   19212   19221       1   19215   19203   19212   19221       1
   19209   19197   19206   19212       1   19209   19197   19206   19218       1
   19206   19212   19203   19215       1   19203   19212   19206   19218       1
   19197   19206   19212   19221       1   19194   19176   19197   19209       1
   19194   19203   19212   19221       1   19191   19173   19194   19203       1
   19188   19170   19182   19200       1   19185   19164   19182   19200       1
   19179   19161   19176   19194       1   19179   19161   19176   19197       1
   19176   19194   19173   19191       1   19176   19194   19203   19215       1
   19176   19197   19206   19218       1   19173   19194   19203   19215       1
   19170   19182   19164   19185       1   19167   19146   19164   19182       1
   19167   19146   19164   19185       1   19164   19182   19170   19188       1
   19161   19176   19197   19209       1   19158   19140   19161   19179       1
   19155   19137   19158   19173       1   19152   19134   19149   19170       1
   19149   19128   19146   19167       1   19149   19170   19182   19200       1
   19146   19164   19182   19200       1   19143   19125   19140   19158       1
   19143   19125   19140   19161       1   19140   19158   19137   19155       1
   19140   19158   19173   19191       1   19137   19122   19134   19152       1
   19137   19158   19173   19191       1   19134   19122   19137   19155       1
   19134   19149   19170   19188       1   19131   19119   19128   19146       1
   19131   19119   19128   19149       1   19128   19146   19164   19185       1
   19128   19149   19134   19152       1   19128   19149   19170   19188       1
   19125   19116   19119   19131       1   19125   19140   19161   19179       1
   19122   19116   19119   19131       1   19122   19116   19125   19143       1
   19119   19116   19125   19143       1   19119   19128   19146   19167       1
   19116   19122   19134   19152       1   19116   19122   19137   19155       1
   19326   19314   19320   19329       1   19323   19311   19320   19329       1
   19317   19305   19314   19320       1   19317   19305   19314   19326       1
   19314   19320   19311   19323       1   19311   19320   19314   19326       1
   19305   19314   19320   19329       1   19302   19284   19305   19317       1
   19302   19311   19320   19329       1   19299   19281   19302   19311       1
   19296   19278   19290   19308       1   19293   19272   19290   19308       1
   19287   19269   19284   19302       1   19287   19269   19284   19305       1
   19284   19302   19281   19299       1   19284   19302   19311   19323       1
   19284   19305   19314   19326       1   19281   19302   19311   19323       1
   19278   19290   19272   19293       1   19275   19254   19272   19290       1
   19275   19254   19272   19293       1   19272   19290   19278   19296       1
   19269   19284   19305   19317       1   19266   19248   19269   19287       1
   19263   19245   19266   19281       1   19260   19242   19257   19278       1
   19257   19236   19254   19275       1   19257   19278   19290   19308       1
   19254   19272   19290   19308       1   19251   19233   19248   19266       1
   19251   19233   19248   19269       1   19248   19266   19245   19263       1
   19248   19266   19281   19299       1   19245   19230   19242   19260       1
   19245   19266   19281   19299       1   19242   19230   19245   19263       1
   19242   19257   19278   19296       1   19239   19227   19236   19254       1
   19239   19227   19236   19257       1   19236   19254   19272   19293       1
   19236   19257   19242   19260       1   19236   19257   19278   19296       1
   19233   19224   19227   19239       1   19233   19248   19269   19287       1
   19230   19224   19227   19239       1   19230   19224   19233   19251       1
   19227   19224   19233   19251       1   19227   19236   19254   19275       1
   19224   19230   19242   19260       1   19224   19230   19245   19263       1
   19434   19422   19428   19437       1   19431   19419   19428   19437       1
   19425   19413   19422   19428       1   19425   19413   19422   19434       1
   19422   19428   19419   19431       1   19419   19428   19422   19434       1
   19413   19422   19428   19437       1   19410   19392   19413   19425       1
   19410   19419   19428   19437       1   19407   19389   19410   19419       1
   19404   19386   19398   19416       1   19401   19380   19398   19416       1
   19395   19377   19392   19410       1   19395   19377   19392   19413       1
   19392   19410   19389   19407       1   19392   19410   19419   19431       1
   19392   19413   19422   19434       1   19389   19410   19419   19431       1
   19386   19398   19380   19401       1   19383   19362   19380   19398       1
   19383   19362   19380   19401       1   19380   19398   19386   19404       1
   19377   19392   19413   19425       1   19374   19356   19377   19395       1
   19371   19353   19374   19389       1   19368   19350   19365   19386       1
   19365   19344   19362   19383       1   19365   19386   19398   19416       1
   19362   19380   19398   19416       1   19359   19341   19356   19374       1
   19359   19341   19356   19377       1   19356   19374   19353   19371       1
   19356   19374   19389   19407       1   19353   19338   19350   19368       1
   19353   19374   19389   19407       1   19350   19338   19353   19371       1
   19350   19365   19386   19404       1   19347   19335   19344   19362       1
   19347   19335   19344   19365       1   19344   19362   19380   19401       1
   19344   19365   19350   19368       1   19344   19365   19386   19404       1
   19341   19332   19335   19347       1   19341   19356   19377   19395       1
   19338   19332   19335   19347       1   19338   19332   19341   19359       1
   19335   19332   19341   19359       1   19335   19344   19362   19383       1
   19332   19338   19350   19368       1   19332   19338   19353   19371       1
   19542   19530   19536   19545       1   19539   19527   19536   19545       1
   19533   19521   19530   19536       1   19533   19521   19530   19542       1
   19530   19536   19527   19539       1   19527   19536   19530   19542       1
   19521   19530   19536   19545       1   19518   19500   19521   19533       1
   19518   19527   19536   19545       1   19515   19497   19518   19527       1
   19512   19494   19506   19524       1   19509   19488   19506   19524       1
   19503   19485   19500   19518       1   19503   19485   19500   19521       1
   19500   19518   19497   19515       1   19500   19518   19527   19539       1
   19500   19521   19530   19542       1   19497   19518   19527   19539       1
   19494   19506   19488   19509       1   19491   19470   19488   19506       1
   19491   19470   19488   19509       1   19488   19506   19494   19512       1
   19485   19500   19521   19533       1   19482   19464   19485   19503       1
   19479   19461   19482   19497       1   19476   19458   19473   19494       1
   19473   19452   19470   19491       1   19473   19494   19506   19524       1
   19470   19488   19506   19524       1   19467   19449   19464   19482       1
   19467   19449   19464   19485       1   19464   19482   19461   19479       1
   19464   19482   19497   19515       1   19461   19446   19458   19476       1
   19461   19482   19497   19515       1   19458   19446   19461   19479       1
   19458   19473   19494   19512       1   19455   19443   19452   19470       1
   19455   19443   19452   19473       1   19452   19470   19488   19509       1
   19452   19473   19458   19476       1   19452   19473   19494   19512       1
   19449   19440   19443   19455       1   19449   19464   19485   19503       1
   19446   19440   19443   19455       1   19446   19440   19449   19467       1
   19443   19440   19449   19467       1   19443   19452   19470   19491       1
   19440   19446   19458   19476       1   19440   19446   19461   19479       1
   19650   19638   19644   19653       1   19647   19635   19644   19653       1
   19641   19629   19638   19644       1   19641   19629   19638   19650       1
   19638   19644   19635   19647       1   19635   19644   19638   19650       1
   19629   19638   19644   19653       1   19626   19608   19629   19641       1
   19626   19635   19644   19653       1   19623   19605   19626   19635       1
   19620   19602   19614   19632       1   19617   19596   19614   19632       1
   19611   19593   19608   19626       1   19611   19593   19608   19629       1
   19608   19626   19605   19623       1   19608   19626   19635   19647       1
   19608   19629   19638   19650       1   19605   19626   19635   19647       1
   19602   19614   19596   19617       1   19599   19578   19596   19614       1
   19599   19578   19596   19617       1   19596   19614   19602   19620       1
   19593   19608   19629   19641       1   19590   19572   19593   19611       1
   19587   19569   19590   19605       1   19584   19566   19581   19602       1
   19581   19560   19578   19599       1   19581   19602   19614   19632       1
   19578   19596   19614   19632       1   19575   19557   19572   19590       1
   19575   19557   19572   19593       1   19572   19590   19569   19587       1
   19572   19590   19605   19623       1   19569   19554   19566   19584       1
   19569   19590   19605   19623       1   19566   19554   19569   19587       1
   19566   19581   19602   19620       1   19563   19551   19560   19578       1
   19563   19551   19560   19581       1   19560   19578   19596   19617       1
   19560   19581   19566   19584       1   19560   19581   19602   19620       1
   19557   19548   19551   19563       1   19557   19572   19593   19611       1
   19554   19548   19551   19563       1   19554   19548   19557   19575       1
   19551   19548   19557   19575       1   19551   19560   19578   19599       1
   19548   19554   19566   19584       1   19548   19554   19569   19587       1
   19758   19746   19752   19761       1   19755   19743   19752   19761       1
   19749   19737   19746   19752       1   19749   19737   19746   19758       1
   19746   19752   19743   19755       1   19743   19752   19746   19758       1
   19737   19746   19752   19761       1   19734   19716   19737   19749       1
   19734   19743   19752   19761       1   19731   19713   19734   19743       1
   19728   19710   19722   19740       1   19725   19704   19722   19740       1
   19719   19701   19716   19734       1   19719   19701   19716   19737       1
   19716   19734   19713   19731       1   19716   19734   19743   19755       1
   19716   19737   19746   19758       1   19713   19734   19743   19755       1
   19710   19722   19704   19725       1   19707   19686   19704   19722       1
   19707   19686   19704   19725       1   19704   19722   19710   19728       1
   19701   19716   19737   19749       1   19698   19680   19701   19719       1
   19695   19677   19698   19713       1   19692   19674   19689   19710       1
   19689   19668   19686   19707       1   19689   19710   19722   19740       1
   19686   19704   19722   19740       1   19683   19665   19680   19698       1
   19683   19665   19680   19701       1   19680   19698   19677   19695       1
   19680   19698   19713   19731       1   19677   19662   19674   19692       1
   19677   19698   19713   19731       1   19674   19662   19677   19695       1
   19674   19689   19710   19728       1   19671   19659   19668   19686       1
   19671   19659   19668   19689       1   19668   19686   19704   19725       1
   19668   19689   19674   19692       1   19668   19689   19710   19728       1
   19665   19656   19659   19671       1   19665   19680   19701   19719       1
   19662   19656   19659   19671       1   19662   19656   19665   19683       1
   19659   19656   19665   19683       1   19659   19668   19686   19707       1
   19656   19662   19674   19692       1   19656   19662   19677   19695       1
   19866   19854   19860   19869       1   19863   19851   19860   19869       1
   19857   19845   19854   19860       1   19857   19845   19854   19866       1
   19854   19860   19851   19863       1   19851   19860   19854   19866       1
   19845   19854   19860   19869       1   19842   19824   19845   19857       1
   19842   19851   19860   19869       1   19839   19821   19842   19851       1
   19836   19818   19830   19848       1   19833   19812   19830   19848       1
   19827   19809   19824   19842       1   19827   19809   19824   19845       1
   19824   19842   19821   19839       1   19824   19842   19851   19863       1
   19824   19845   19854   19866       1   19821   19842   19851   19863       1
   19818   19830   19812   19833       1   19815   19794   19812   19830       1
   19815   19794   19812   19833       1   19812   19830   19818   19836       1
   19809   19824   19845   19857       1   19806   19788   19809   19827       1
   19803   19785   19806   19821       1   19800   19782   19797   19818       1
   19797   19776   19794   19815       1   19797   19818   19830   19848       1
   19794   19812   19830   19848       1   19791   19773   19788   19806       1
   19791   19773   19788   19809       1   19788   19806   19785   19803       1
   19788   19806   19821   19839       1   19785   19770   19782   19800       1
   19785   19806   19821   19839       1   19782   19770   19785   19803       1
   19782   19797   19818   19836       1   19779   19767   19776   19794       1
   19779   19767   19776   19797       1   19776   19794   19812   19833       1
   19776   19797   19782   19800       1   19776   19797   19818   19836       1
   19773   19764   19767   19779       1   19773   19788   19809   19827       1
   19770   19764   19767   19779       1   19770   19764   19773   19791       1
   19767   19764   19773   19791       1   19767   19776   19794   19815       1
   19764   19770   19782   19800       1   19764   19770   19785   19803       1
   19974   19962   19968   19977       1   19971   19959   19968   19977       1
   19965   19953   19962   19968       1   19965   19953   19962   19974       1
   19962   19968   19959   19971       1   19959   19968   19962   19974       1
   19953   19962   19968   19977       1   19950   19932   19953   19965       1
   19950   19959   19968   19977       1   19947   19929   19950   19959       1
   19944   19926   19938   19956       1   19941   19920   19938   19956       1
   19935   19917   19932   19950       1   19935   19917   19932   19953       1
   19932   19950   19929   19947       1   19932   19950   19959   19971       1
   19932   19953   19962   19974       1   19929   19950   19959   19971       1
   19926   19938   19920   19941       1   19923   19902   19920   19938       1
   19923   19902   19920   19941       1   19920   19938   19926   19944       1
   19917   19932   19953   19965       1   19914   19896   19917   19935       1
   19911   19893   19914   19929       1   19908   19890   19905   19926       1
   19905   19884   19902   19923       1   19905   19926   19938   19956       1
   19902   19920   19938   19956       1   19899   19881   19896   19914       1
   19899   19881   19896   19917       1   19896   19914   19893   19911       1
   19896   19914   19929   19947       1   19893   19878   19890   19908       1
   19893   19914   19929   19947       1   19890   19878   19893   19911       1
   19890   19905   19926   19944       1   19887   19875   19884   19902       1
   19887   19875   19884   19905       1   19884   19902   19920   19941       1
   19884   19905   19890   19908       1   19884   19905   19926   19944       1
   19881   19872   19875   19887       1   19881   19896   19917   19935       1
   19878   19872   19875   19887       1   19878   19872   19881   19899       1
   19875   19872   19881   19899       1   19875   19884   19902   19923       1
   19872   19878   19890   19908       1   19872   19878   19893   19911       1
   20082   20070   20076   20085       1   20079   20067   20076   20085       1
   20073   20061   20070   20076       1   20073   20061   20070   20082       1
   20070   20076   20067   20079       1   20067   20076   20070   20082       1
   20061   20070   20076   20085       1   20058   20040   20061   20073       1
   20058   20067   20076   20085       1   20055   20037   20058   20067       1
   20052   20034   20046   20064       1   20049   20028   20046   20064       1
   20043   20025   20040   20058       1   20043   20025   20040   20061       1
   20040   20058   20037   20055       1   20040   20058   20067   20079       1
   20040   20061   20070   20082       1   20037   20058   20067   20079       1
   20034   20046   20028   20049       1   20031   20010   20028   20046       1
   20031   20010   20028   20049       1   20028   20046   20034   20052       1
   20025   20040   20061   20073       1   20022   20004   20025   20043       1
   20019   20001   20022   20037       1   20016   19998   20013   20034       1
   20013   19992   20010   20031       1   20013   20034   20046   20064       1
   20010   20028   20046   20064       1   20007   19989   20004   20022       1
   20007   19989   20004   20025       1   20004   20022   20001   20019       1
   20004   20022   20037   20055       1   20001   19986   19998   20016       1
   20001   20022   20037   20055       1   19998   19986   20001   20019       1
   19998   20013   20034   20052       1   19995   19983   19992   20010       1
   19995   19983   19992   20013       1   19992   20010   20028   20049       1
   19992   20013   19998   20016       1   19992   20013   20034   20052       1
   19989   19980   19983   19995       1   19989   20004   20025   20043       1
   19986   19980   19983   19995       1   19986   19980   19989   20007       1
   19983   19980   19989   20007       1   19983   19992   20010   20031       1
   19980   19986   19998   20016       1   19980   19986   20001   20019       1
   20190   20178   20184   20193       1   20187   20175   20184   20193       1
   20181   20169   20178   20184       1   20181   20169   20178   20190       1
   20178   20184   20175   20187       1   20175   20184   20178   20190       1
   20169   20178   20184   20193       1   20166   20148   20169   20181       1
   20166   20175   20184   20193       1   20163   20145   20166   20175       1
   20160   20142   20154   20172       1   20157   20136   20154   20172       1
   20151   20133   20148   20166       1   20151   20133   20148   20169       1
   20148   20166   20145   20163       1   20148   20166   20175   20187       1
   20148   20169   20178   20190       1   20145   20166   20175   20187       1
   20142   20154   20136   20157       1   20139   20118   20136   20154       1
   20139   20118   20136   20157       1   20136   20154   20142   20160       1
   20133   20148   20169   20181       1   20130   20112   20133   20151       1
   20127   20109   20130   20145       1   20124   20106   20121   20142       1
   20121   20100   20118   20139       1   20121   20142   20154   20172       1
   20118   20136   20154   20172       1   20115   20097   20112   20130       1
   20115   20097   20112   20133       1   20112   20130   20109   20127       1
   20112   20130   20145   20163       1   20109   20094   20106   20124       1
   20109   20130   20145   20163       1   20106   20094   20109   20127       1
   20106   20121   20142   20160       1   20103   20091   20100   20118       1
   20103   20091   20100   20121       1   20100   20118   20136   20157       1
   20100   20121   20106   20124       1   20100   20121   20142   20160       1
   20097   20088   20091   20103       1   20097   20112   20133   20151       1
   20094   20088   20091   20103       1   20094   20088   20097   20115       1
   20091   20088   20097   20115       1   20091   20100   20118   20139       1
   20088   20094   20106   20124       1   20088   20094   20109   20127       1
   20298   20286   20292   20301       1   20295   20283   20292   20301       1
   20289   20277   20286   20292       1   20289   20277   20286   20298       1
   20286   20292   20283   20295       1   20283   20292   20286   20298       1
   20277   20286   20292   20301       1   20274   20256   20277   20289       1
   20274   20283   20292   20301       1   20271   20253   20274   20283       1
   20268   20250   20262   20280       1   20265   20244   20262   20280       1
   20259   20241   20256   20274       1   20259   20241   20256   20277       1
   20256   20274   20253   20271       1   20256   20274   20283   20295       1
   20256   20277   20286   20298       1   20253   20274   20283   20295       1
   20250   20262   20244   20265       1   20247   20226   20244   20262       1
   20247   20226   20244   20265       1   20244   20262   20250   20268       1
   20241   20256   20277   20289       1   20238   20220   20241   20259       1
   20235   20217   20238   20253       1   20232   20214   20229   20250       1
   20229   20208   20226   20247       1   20229   20250   20262   20280       1
   20226   20244   20262   20280       1   20223   20205   20220   20238       1
   20223   20205   20220   20241       1   20220   20238   20217   20235       1
   20220   20238   20253   20271       1   20217   20202   20214   20232       1
   20217   20238   20253   20271       1   20214   20202   20217   20235       1
   20214   20229   20250   20268       1   20211   20199   20208   20226       1
   20211   20199   20208   20229       1   20208   20226   20244   20265       1
   20208   20229   20214   20232       1   20208   20229   20250   20268       1
   20205   20196   20199   20211       1   20205   20220   20241   20259       1
   20202   20196   20199   20211       1   20202   20196   20205   20223       1
   20199   20196   20205   20223       1   20199   20208   20226   20247       1
   20196   20202   20214   20232       1   20196   20202   20217   20235       1
   20406   20394   20400   20409       1   20403   20391   20400   20409       1
   20397   20385   20394   20400       1   20397   20385   20394   20406       1
   20394   20400   20391   20403       1   20391   20400   20394   20406       1
   20385   20394   20400   20409       1   20382   20364   20385   20397       1
   20382   20391   20400   20409       1   20379   20361   20382   20391       1
   20376   20358   20370   20388       1   20373   20352   20370   20388       1
   20367   20349   20364   20382       1   20367   20349   20364   20385       1
   20364   20382   20361   20379       1   20364   20382   20391   20403       1
   20364   20385   20394   20406       1   20361   20382   20391   20403       1
   20358   20370   20352   20373       1   20355   20334   20352   20370       1
   20355   20334   20352   20373       1   20352   20370   20358   20376       1
   20349   20364   20385   20397       1   20346   20328   20349   20367       1
   20343   20325   20346   20361       1   20340   20322   20337   20358       1
   20337   20316   20334   20355       1   20337   20358   20370   20388       1
   20334   20352   20370   20388       1   20331   20313   20328   20346       1
   20331   20313   20328   20349       1   20328   20346   20325   20343       1
   20328   20346   20361   20379       1   20325   20310   20322   20340       1
   20325   20346   20361   20379       1   20322   20310   20325   20343       1
   20322   20337   20358   20376       1   20319   20307   20316   20334       1
   20319   20307   20316   20337       1   20316   20334   20352   20373       1
   20316   20337   20322   20340       1   20316   20337   20358   20376       1
   20313   20304   20307   20319       1   20313   20328   20349   20367       1
   20310   20304   20307   20319       1   20310   20304   20313   20331       1
   20307   20304   20313   20331       1   20307   20316   20334   20355       1
   20304   20310   20322   20340       1   20304   20310   20325   20343       1
   20514   20502   20508   20517       1   20511   20499   20508   20517       1
   20505   20493   20502   20508       1   20505   20493   20502   20514       1
   20502   20508   20499   20511       1   20499   20508   20502   20514       1
   20493   20502   20508   20517       1   20490   20472   20493   20505       1
   20490   20499   20508   20517       1   20487   20469   20490   20499       1
   20484   20466   20478   20496       1   20481   20460   20478   20496       1
   20475   20457   20472   20490       1   20475   20457   20472   20493       1
   20472   20490   20469   20487       1   20472   20490   20499   20511       1
   20472   20493   20502   20514       1   20469   20490   20499   20511       1
   20466   20478   20460   20481       1   20463   20442   20460   20478       1
   20463   20442   20460   20481       1   20460   20478   20466   20484       1
   20457   20472   20493   20505       1   20454   20436   20457   20475       1
   20451   20433   20454   20469       1   20448   20430   20445   20466       1
   20445   20424   20442   20463       1   20445   20466   20478   20496       1
   20442   20460   20478   20496       1   20439   20421   20436   20454       1
   20439   20421   20436   20457       1   20436   20454   20433   20451       1
   20436   20454   20469   20487       1   20433   20418   20430   20448       1
   20433   20454   20469   20487       1   20430   20418   20433   20451       1
   20430   20445   20466   20484       1   20427   20415   20424   20442       1
   20427   20415   20424   20445       1   20424   20442   20460   20481       1
   20424   20445   20430   20448       1   20424   20445   20466   20484       1
   20421   20412   20415   20427       1   20421   20436   20457   20475       1
   20418   20412   20415   20427       1   20418   20412   20421   20439       1
   20415   20412   20421   20439       1   20415   20424   20442   20463       1
   20412   20418   20430   20448       1   20412   20418   20433   20451       1
   20622   20610   20616   20625       1   20619   20607   20616   20625       1
   20613   20601   20610   20616       1   20613   20601   20610   20622       1
   20610   20616   20607   20619       1   20607   20616   20610   20622       1
   20601   20610   20616   20625       1   20598   20580   20601   20613       1
   20598   20607   20616   20625       1   20595   20577   20598   20607       1
   20592   20574   20586   20604       1   20589   20568   20586   20604       1
   20583   20565   20580   20598       1   20583   20565   20580   20601       1
   20580   20598   20577   20595       1   20580   20598   20607   20619       1
   20580   20601   20610   20622       1   20577   20598   20607   20619       1
   20574   20586   20568   20589       1   20571   20550   20568   20586       1
   20571   20550   20568   20589       1   20568   20586   20574   20592       1
   20565   20580   20601   20613       1   20562   20544   20565   20583       1
   20559   20541   20562   20577       1   20556   20538   20553   20574       1
   20553   20532   20550   20571       1   20553   20574   20586   20604       1
   20550   20568   20586   20604       1   20547   20529   20544   20562       1
   20547   20529   20544   20565       1   20544   20562   20541   20559       1
   20544   20562   20577   20595       1   20541   20526   20538   20556       1
   20541   20562   20577   20595       1   20538   20526   20541   20559       1
   20538   20553   20574   20592       1   20535   20523   20532   20550       1
   20535   20523   20532   20553       1   20532   20550   20568   20589       1
   20532   20553   20538   20556       1   20532   20553   20574   20592       1
   20529   20520   20523   20535       1   20529   20544   20565   20583       1
   20526   20520   20523   20535       1   20526   20520   20529   20547       1
   20523   20520   20529   20547       1   20523   20532   20550   20571       1
   20520   20526   20538   20556       1   20520   20526   20541   20559       1
   20730   20718   20724   20733       1   20727   20715   20724   20733       1
   20721   20709   20718   20724       1   20721   20709   20718   20730       1
   20718   20724   20715   20727       1   20715   20724   20718   20730       1
   20709   20718   20724   20733       1   20706   20688   20709   20721       1
   20706   20715   20724   20733       1   20703   20685   20706   20715       1
   20700   20682   20694   20712       1   20697   20676   20694   20712       1
   20691   20673   20688   20706       1   20691   20673   20688   20709       1
   20688   20706   20685   20703       1   20688   20706   20715   20727       1
   20688   20709   20718   20730       1   20685   20706   20715   20727       1
   20682   20694   20676   20697       1   20679   20658   20676   20694       1
   20679   20658   20676   20697       1   20676   20694   20682   20700       1
   20673   20688   20709   20721       1   20670   20652   20673   20691       1
   20667   20649   20670   20685       1   20664   20646   20661   20682       1
   20661   20640   20658   20679       1   20661   20682   20694   20712       1
   20658   20676   20694   20712       1   20655   20637   20652   20670       1
   20655   20637   20652   20673       1   20652   20670   20649   20667       1
   20652   20670   20685   20703       1   20649   20634   20646   20664       1
   20649   20670   20685   20703       1   20646   20634   20649   20667       1
   20646   20661   20682   20700       1   20643   20631   20640   20658       1
   20643   20631   20640   20661       1   20640   20658   20676   20697       1
   20640   20661   20646   20664       1   20640   20661   20682   20700       1
   20637   20628   20631   20643       1   20637   20652   20673   20691       1
   20634   20628   20631   20643       1   20634   20628   20637   20655       1
   20631   20628   20637   20655       1   20631   20640   20658   20679       1
   20628   20634   20646   20664       1   20628   20634   20649   20667       1
   20838   20826   20832   20841       1   20835   20823   20832   20841       1
   20829   20817   20826   20832       1   20829   20817   20826   20838       1
   20826   20832   20823   20835       1   20823   20832   20826   20838       1
   20817   20826   20832   20841       1   20814   20796   20817   20829       1
   20814   20823   20832   20841       1   20811   20793   20814   20823       1
   20808   20790   20802   20820       1   20805   20784   20802   20820       1
   20799   20781   20796   20814       1   20799   20781   20796   20817       1
   20796   20814   20793   20811       1   20796   20814   20823   20835       1
   20796   20817   20826   20838       1   20793   20814   20823   20835       1
   20790   20802   20784   20805       1   20787   20766   20784   20802       1
   20787   20766   20784   20805       1   20784   20802   20790   20808       1
   20781   20796   20817   20829       1   20778   20760   20781   20799       1
   20775   20757   20778   20793       1   20772   20754   20769   20790       1
   20769   20748   20766   20787       1   20769   20790   20802   20820       1
   20766   20784   20802   20820       1   20763   20745   20760   20778       1
   20763   20745   20760   20781       1   20760   20778   20757   20775       1
   20760   20778   20793   20811       1   20757   20742   20754   20772       1
   20757   20778   20793   20811       1   20754   20742   20757   20775       1
   20754   20769   20790   20808       1   20751   20739   20748   20766       1
   20751   20739   20748   20769       1   20748   20766   20784   20805       1
   20748   20769   20754   20772       1   20748   20769   20790   20808       1
   20745   20736   20739   20751       1   20745   20760   20781   20799       1
   20742   20736   20739   20751       1   20742   20736   20745   20763       1
   20739   20736   20745   20763       1   20739   20748   20766   20787       1
   20736   20742   20754   20772       1   20736   20742   20757   20775       1
   20946   20934   20940   20949       1   20943   20931   20940   20949       1
   20937   20925   20934   20940       1   20937   20925   20934   20946       1
   20934   20940   20931   20943       1   20931   20940   20934   20946       1
   20925   20934   20940   20949       1   20922   20904   20925   20937       1
   20922   20931   20940   20949       1   20919   20901   20922   20931       1
   20916   20898   20910   20928       1   20913   20892   20910   20928       1
   20907   20889   20904   20922       1   20907   20889   20904   20925       1
   20904   20922   20901   20919       1   20904   20922   20931   20943       1
   20904   20925   20934   20946       1   20901   20922   20931   20943       1
   20898   20910   20892   20913       1   20895   20874   20892   20910       1
   20895   20874   20892   20913       1   20892   20910   20898   20916       1
   20889   20904   20925   20937       1   20886   20868   20889   20907       1
   20883   20865   20886   20901       1   20880   20862   20877   20898       1
   20877   20856   20874   20895       1   20877   20898   20910   20928       1
   20874   20892   20910   20928       1   20871   20853   20868   20886       1
   20871   20853   20868   20889       1   20868   20886   20865   20883       1
   20868   20886   20901   20919       1   20865   20850   20862   20880       1
   20865   20886   20901   20919       1   20862   20850   20865   20883       1
   20862   20877   20898   20916       1   20859   20847   20856   20874       1
   20859   20847   20856   20877       1   20856   20874   20892   20913       1
   20856   20877   20862   20880       1   20856   20877   20898   20916       1
   20853   20844   20847   20859       1   20853   20868   20889   20907       1
   20850   20844   20847   20859       1   20850   20844   20853   20871       1
   20847   20844   20853   20871       1   20847   20856   20874   20895       1
   20844   20850   20862   20880       1   20844   20850   20865   20883       1
   21054   21042   21048   21057       1   21051   21039   21048   21057       1
   21045   21033   21042   21048       1   21045   21033   21042   21054       1
   21042   21048   21039   21051       1   21039   21048   21042   21054       1
   21033   21042   21048   21057       1   21030   21012   21033   21045       1
   21030   21039   21048   21057       1   21027   21009   21030   21039       1
   21024   21006   21018   21036       1   21021   21000   21018   21036       1
   21015   20997   21012   21030       1   21015   20997   21012   21033       1
   21012   21030   21009   21027       1   21012   21030   21039   21051       1
   21012   21033   21042   21054       1   21009   21030   21039   21051       1
   21006   21018   21000   21021       1   21003   20982   21000   21018       1
   21003   20982   21000   21021       1   21000   21018   21006   21024       1
   20997   21012   21033   21045       1   20994   20976   20997   21015       1
   20991   20973   20994   21009       1   20988   20970   20985   21006       1
   20985   20964   20982   21003       1   20985   21006   21018   21036       1
   20982   21000   21018   21036       1   20979   20961   20976   20994       1
   20979   20961   20976   20997       1   20976   20994   20973   20991       1
   20976   20994   21009   21027       1   20973   20958   20970   20988       1
   20973   20994   21009   21027       1   20970   20958   20973   20991       1
   20970   20985   21006   21024       1   20967   20955   20964   20982       1
   20967   20955   20964   20985       1   20964   20982   21000   21021       1
   20964   20985   20970   20988       1   20964   20985   21006   21024       1
   20961   20952   20955   20967       1   20961   20976   20997   21015       1
   20958   20952   20955   20967       1   20958   20952   20961   20979       1
   20955   20952   20961   20979       1   20955   20964   20982   21003       1
   20952   20958   20970   20988       1   20952   20958   20973   20991       1
   21162   21150   21156   21165       1   21159   21147   21156   21165       1
   21153   21141   21150   21156       1   21153   21141   21150   21162       1
   21150   21156   21147   21159       1   21147   21156   21150   21162       1
   21141   21150   21156   21165       1   21138   21120   21141   21153       1
   21138   21147   21156   21165       1   21135   21117   21138   21147       1
   21132   21114   21126   21144       1   21129   21108   21126   21144       1
   21123   21105   21120   21138       1   21123   21105   21120   21141       1
   21120   21138   21117   21135       1   21120   21138   21147   21159       1
   21120   21141   21150   21162       1   21117   21138   21147   21159       1
   21114   21126   21108   21129       1   21111   21090   21108   21126       1
   21111   21090   21108   21129       1   21108   21126   21114   21132       1
   21105   21120   21141   21153       1   21102   21084   21105   21123       1
   21099   21081   21102   21117       1   21096   21078   21093   21114       1
   21093   21072   21090   21111       1   21093   21114   21126   21144       1
   21090   21108   21126   21144       1   21087   21069   21084   21102       1
   21087   21069   21084   21105       1   21084   21102   21081   21099       1
   21084   21102   21117   21135       1   21081   21066   21078   21096       1
   21081   21102   21117   21135       1   21078   21066   21081   21099       1
   21078   21093   21114   21132       1   21075   21063   21072   21090       1
   21075   21063   21072   21093       1   21072   21090   21108   21129       1
   21072   21093   21078   21096       1   21072   21093   21114   21132       1
   21069   21060   21063   21075       1   21069   21084   21105   21123       1
   21066   21060   21063   21075       1   21066   21060   21069   21087       1
   21063   21060   21069   21087       1   21063   21072   21090   21111       1
   21060   21066   21078   21096       1   21060   21066   21081   21099       1
   21270   21258   21264   21273       1   21267   21255   21264   21273       1
   21261   21249   21258   21264       1   21261   21249   21258   21270       1
   21258   21264   21255   21267       1   21255   21264   21258   21270       1
   21249   21258   21264   21273       1   21246   21228   21249   21261       1
   21246   21255   21264   21273       1   21243   21225   21246   21255       1
   21240   21222   21234   21252       1   21237   21216   21234   21252       1
   21231   21213   21228   21246       1   21231   21213   21228   21249       1
   21228   21246   21225   21243       1   21228   21246   21255   21267       1
   21228   21249   21258   21270       1   21225   21246   21255   21267       1
   21222   21234   21216   21237       1   21219   21198   21216   21234       1
   21219   21198   21216   21237       1   21216   21234   21222   21240       1
   21213   21228   21249   21261       1   21210   21192   21213   21231       1
   21207   21189   21210   21225       1   21204   21186   21201   21222       1
   21201   21180   21198   21219       1   21201   21222   21234   21252       1
   21198   21216   21234   21252       1   21195   21177   21192   21210       1
   21195   21177   21192   21213       1   21192   21210   21189   21207       1
   21192   21210   21225   21243       1   21189   21174   21186   21204       1
   21189   21210   21225   21243       1   21186   21174   21189   21207       1
   21186   21201   21222   21240       1   21183   21171   21180   21198       1
   21183   21171   21180   21201       1   21180   21198   21216   21237       1
   21180   21201   21186   21204       1   21180   21201   21222   21240       1
   21177   21168   21171   21183       1   21177   21192   21213   21231       1
   21174   21168   21171   21183       1   21174   21168   21177   21195       1
   21171   21168   21177   21195       1   21171   21180   21198   21219       1
   21168   21174   21186   21204       1   21168   21174   21189   21207       1
   21378   21366   21372   21381       1   21375   21363   21372   21381       1
   21369   21357   21366   21372       1   21369   21357   21366   21378       1
   21366   21372   21363   21375       1   21363   21372   21366   21378       1
   21357   21366   21372   21381       1   21354   21336   21357   21369       1
   21354   21363   21372   21381       1   21351   21333   21354   21363       1
   21348   21330   21342   21360       1   21345   21324   21342   21360       1
   21339   21321   21336   21354       1   21339   21321   21336   21357       1
   21336   21354   21333   21351       1   21336   21354   21363   21375       1
   21336   21357   21366   21378       1   21333   21354   21363   21375       1
   21330   21342   21324   21345       1   21327   21306   21324   21342       1
   21327   21306   21324   21345       1   21324   21342   21330   21348       1
   21321   21336   21357   21369       1   21318   21300   21321   21339       1
   21315   21297   21318   21333       1   21312   21294   21309   21330       1
   21309   21288   21306   21327       1   21309   21330   21342   21360       1
   21306   21324   21342   21360       1   21303   21285   21300   21318       1
   21303   21285   21300   21321       1   21300   21318   21297   21315       1
   21300   21318   21333   21351       1   21297   21282   21294   21312       1
   21297   21318   21333   21351       1   21294   21282   21297   21315       1
   21294   21309   21330   21348       1   21291   21279   21288   21306       1
   21291   21279   21288   21309       1   21288   21306   21324   21345       1
   21288   21309   21294   21312       1   21288   21309   21330   21348       1
   21285   21276   21279   21291       1   21285   21300   21321   21339       1
   21282   21276   21279   21291       1   21282   21276   21285   21303       1
   21279   21276   21285   21303       1   21279   21288   21306   21327       1
   21276   21282   21294   21312       1   21276   21282   21297   21315       1
   21486   21474   21480   21489       1   21483   21471   21480   21489       1
   21477   21465   21474   21480       1   21477   21465   21474   21486       1
   21474   21480   21471   21483       1   21471   21480   21474   21486       1
   21465   21474   21480   21489       1   21462   21444   21465   21477       1
   21462   21471   21480   21489       1   21459   21441   21462   21471       1
   21456   21438   21450   21468       1   21453   21432   21450   21468       1
   21447   21429   21444   21462       1   21447   21429   21444   21465       1
   21444   21462   21441   21459       1   21444   21462   21471   21483       1
   21444   21465   21474   21486       1   21441   21462   21471   21483       1
   21438   21450   21432   21453       1   21435   21414   21432   21450       1
   21435   21414   21432   21453       1   21432   21450   21438   21456       1
   21429   21444   21465   21477       1   21426   21408   21429   21447       1
   21423   21405   21426   21441       1   21420   21402   21417   21438       1
   21417   21396   21414   21435       1   21417   21438   21450   21468       1
   21414   21432   21450   21468       1   21411   21393   21408   21426       1
   21411   21393   21408   21429       1   21408   21426   21405   21423       1
   21408   21426   21441   21459       1   21405   21390   21402   21420       1
   21405   21426   21441   21459       1   21402   21390   21405   21423       1
   21402   21417   21438   21456       1   21399   21387   21396   21414       1
   21399   21387   21396   21417       1   21396   21414   21432   21453       1
   21396   21417   21402   21420       1   21396   21417   21438   21456       1
   21393   21384   21387   21399       1   21393   21408   21429   21447       1
   21390   21384   21387   21399       1   21390   21384   21393   21411       1
   21387   21384   21393   21411       1   21387   21396   21414   21435       1
   21384   21390   21402   21420       1   21384   21390   21405   21423       1
   21594   21582   21588   21597       1   21591   21579   21588   21597       1
   21585   21573   21582   21588       1   21585   21573   21582   21594       1
   21582   21588   21579   21591       1   21579   21588   21582   21594       1
   21573   21582   21588   21597       1   21570   21552   21573   21585       1
   21570   21579   21588   21597       1   21567   21549   21570   21579       1
   21564   21546   21558   21576       1   21561   21540   21558   21576       1
   21555   21537   21552   21570       1   21555   21537   21552   21573       1
   21552   21570   21549   21567       1   21552   21570   21579   21591       1
   21552   21573   21582   21594       1   21549   21570   21579   21591       1
   21546   21558   21540   21561       1   21543   21522   21540   21558       1
   21543   21522   21540   21561       1   21540   21558   21546   21564       1
   21537   21552   21573   21585       1   21534   21516   21537   21555       1
   21531   21513   21534   21549       1   21528   21510   21525   21546       1
   21525   21504   21522   21543       1   21525   21546   21558   21576       1
   21522   21540   21558   21576       1   21519   21501   21516   21534       1
   21519   21501   21516   21537       1   21516   21534   21513   21531       1
   21516   21534   21549   21567       1   21513   21498   21510   21528       1
   21513   21534   21549   21567       1   21510   21498   21513   21531       1
   21510   21525   21546   21564       1   21507   21495   21504   21522       1
   21507   21495   21504   21525       1   21504   21522   21540   21561       1
   21504   21525   21510   21528       1   21504   21525   21546   21564       1
   21501   21492   21495   21507       1   21501   21516   21537   21555       1
   21498   21492   21495   21507       1   21498   21492   21501   21519       1
   21495   21492   21501   21519       1   21495   21504   21522   21543       1
   21492   21498   21510   21528       1   21492   21498   21513   21531       1
   21702   21690   21696   21705       1   21699   21687   21696   21705       1
   21693   21681   21690   21696       1   21693   21681   21690   21702       1
   21690   21696   21687   21699       1   21687   21696   21690   21702       1
   21681   21690   21696   21705       1   21678   21660   21681   21693       1
   21678   21687   21696   21705       1   21675   21657   21678   21687       1
   21672   21654   21666   21684       1   21669   21648   21666   21684       1
   21663   21645   21660   21678       1   21663   21645   21660   21681       1
   21660   21678   21657   21675       1   21660   21678   21687   21699       1
   21660   21681   21690   21702       1   21657   21678   21687   21699       1
   21654   21666   21648   21669       1   21651   21630   21648   21666       1
   21651   21630   21648   21669       1   21648   21666   21654   21672       1
   21645   21660   21681   21693       1   21642   21624   21645   21663       1
   21639   21621   21642   21657       1   21636   21618   21633   21654       1
   21633   21612   21630   21651       1   21633   21654   21666   21684       1
   21630   21648   21666   21684       1   21627   21609   21624   21642       1
   21627   21609   21624   21645       1   21624   21642   21621   21639       1
   21624   21642   21657   21675       1   21621   21606   21618   21636       1
   21621   21642   21657   21675       1   21618   21606   21621   21639       1
   21618   21633   21654   21672       1   21615   21603   21612   21630       1
   21615   21603   21612   21633       1   21612   21630   21648   21669       1
   21612   21633   21618   21636       1   21612   21633   21654   21672       1
   21609   21600   21603   21615       1   21609   21624   21645   21663       1
   21606   21600   21603   21615       1   21606   21600   21609   21627       1
   21603   21600   21609   21627       1   21603   21612   21630   21651       1
   21600   21606   21618   21636       1   21600   21606   21621   21639       1
   21810   21798   21804   21813       1   21807   21795   21804   21813       1
   21801   21789   21798   21804       1   21801   21789   21798   21810       1
   21798   21804   21795   21807       1   21795   21804   21798   21810       1
   21789   21798   21804   21813       1   21786   21768   21789   21801       1
   21786   21795   21804   21813       1   21783   21765   21786   21795       1
   21780   21762   21774   21792       1   21777   21756   21774   21792       1
   21771   21753   21768   21786       1   21771   21753   21768   21789       1
   21768   21786   21765   21783       1   21768   21786   21795   21807       1
   21768   21789   21798   21810       1   21765   21786   21795   21807       1
   21762   21774   21756   21777       1   21759   21738   21756   21774       1
   21759   21738   21756   21777       1   21756   21774   21762   21780       1
   21753   21768   21789   21801       1   21750   21732   21753   21771       1
   21747   21729   21750   21765       1   21744   21726   21741   21762       1
   21741   21720   21738   21759       1   21741   21762   21774   21792       1
   21738   21756   21774   21792       1   21735   21717   21732   21750       1
   21735   21717   21732   21753       1   21732   21750   21729   21747       1
   21732   21750   21765   21783       1   21729   21714   21726   21744       1
   21729   21750   21765   21783       1   21726   21714   21729   21747       1
   21726   21741   21762   21780       1   21723   21711   21720   21738       1
   21723   21711   21720   21741       1   21720   21738   21756   21777       1
   21720   21741   21726   21744       1   21720   21741   21762   21780       1
   21717   21708   21711   21723       1   21717   21732   21753   21771       1
   21714   21708   21711   21723       1   21714   21708   21717   21735       1
   21711   21708   21717   21735       1   21711   21720   21738   21759       1
   21708   21714   21726   21744       1   21708   21714   21729   21747       1
   21918   21906   21912   21921       1   21915   21903   21912   21921       1
   21909   21897   21906   21912       1   21909   21897   21906   21918       1
   21906   21912   21903   21915       1   21903   21912   21906   21918       1
   21897   21906   21912   21921       1   21894   21876   21897   21909       1
   21894   21903   21912   21921       1   21891   21873   21894   21903       1
   21888   21870   21882   21900       1   21885   21864   21882   21900       1
   21879   21861   21876   21894       1   21879   21861   21876   21897       1
   21876   21894   21873   21891       1   21876   21894   21903   21915       1
   21876   21897   21906   21918       1   21873   21894   21903   21915       1
   21870   21882   21864   21885       1   21867   21846   21864   21882       1
   21867   21846   21864   21885       1   21864   21882   21870   21888       1
   21861   21876   21897   21909       1   21858   21840   21861   21879       1
   21855   21837   21858   21873       1   21852   21834   21849   21870       1
   21849   21828   21846   21867       1   21849   21870   21882   21900       1
   21846   21864   21882   21900       1   21843   21825   21840   21858       1
   21843   21825   21840   21861       1   21840   21858   21837   21855       1
   21840   21858   21873   21891       1   21837   21822   21834   21852       1
   21837   21858   21873   21891       1   21834   21822   21837   21855       1
   21834   21849   21870   21888       1   21831   21819   21828   21846       1
   21831   21819   21828   21849       1   21828   21846   21864   21885       1
   21828   21849   21834   21852       1   21828   21849   21870   21888       1
   21825   21816   21819   21831       1   21825   21840   21861   21879       1
   21822   21816   21819   21831       1   21822   21816   21825   21843       1
   21819   21816   21825   21843       1   21819   21828   21846   21867       1
   21816   21822   21834   21852       1   21816   21822   21837   21855       1
   22026   22014   22020   22029       1   22023   22011   22020   22029       1
   22017   22005   22014   22020       1   22017   22005   22014   22026       1
   22014   22020   22011   22023       1   22011   22020   22014   22026       1
   22005   22014   22020   22029       1   22002   21984   22005   22017       1
   22002   22011   22020   22029       1   21999   21981   22002   22011       1
   21996   21978   21990   22008       1   21993   21972   21990   22008       1
   21987   21969   21984   22002       1   21987   21969   21984   22005       1
   21984   22002   21981   21999       1   21984   22002   22011   22023       1
   21984   22005   22014   22026       1   21981   22002   22011   22023       1
   21978   21990   21972   21993       1   21975   21954   21972   21990       1
   21975   21954   21972   21993       1   21972   21990   21978   21996       1
   21969   21984   22005   22017       1   21966   21948   21969   21987       1
   21963   21945   21966   21981       1   21960   21942   21957   21978       1
   21957   21936   21954   21975       1   21957   21978   21990   22008       1
   21954   21972   21990   22008       1   21951   21933   21948   21966       1
   21951   21933   21948   21969       1   21948   21966   21945   21963       1
   21948   21966   21981   21999       1   21945   21930   21942   21960       1
   21945   21966   21981   21999       1   21942   21930   21945   21963       1
   21942   21957   21978   21996       1   21939   21927   21936   21954       1
   21939   21927   21936   21957       1   21936   21954   21972   21993       1
   21936   21957   21942   21960       1   21936   21957   21978   21996       1
   21933   21924   21927   21939       1   21933   21948   21969   21987       1
   21930   21924   21927   21939       1   21930   21924   21933   21951       1
   21927   21924   21933   21951       1   21927   21936   21954   21975       1
   21924   21930   21942   21960       1   21924   21930   21945   21963       1
   22134   22122   22128   22137       1   22131   22119   22128   22137       1
   22125   22113   22122   22128       1   22125   22113   22122   22134       1
   22122   22128   22119   22131       1   22119   22128   22122   22134       1
   22113   22122   22128   22137       1   22110   22092   22113   22125       1
   22110   22119   22128   22137       1   22107   22089   22110   22119       1
   22104   22086   22098   22116       1   22101   22080   22098   22116       1
   22095   22077   22092   22110       1   22095   22077   22092   22113       1
   22092   22110   22089   22107       1   22092   22110   22119   22131       1
   22092   22113   22122   22134       1   22089   22110   22119   22131       1
   22086   22098   22080   22101       1   22083   22062   22080   22098       1
   22083   22062   22080   22101       1   22080   22098   22086   22104       1
   22077   22092   22113   22125       1   22074   22056   22077   22095       1
   22071   22053   22074   22089       1   22068   22050   22065   22086       1
   22065   22044   22062   22083       1   22065   22086   22098   22116       1
   22062   22080   22098   22116       1   22059   22041   22056   22074       1
   22059   22041   22056   22077       1   22056   22074   22053   22071       1
   22056   22074   22089   22107       1   22053   22038   22050   22068       1
   22053   22074   22089   22107       1   22050   22038   22053   22071       1
   22050   22065   22086   22104       1   22047   22035   22044   22062       1
   22047   22035   22044   22065       1   22044   22062   22080   22101       1
   22044   22065   22050   22068       1   22044   22065   22086   22104       1
   22041   22032   22035   22047       1   22041   22056   22077   22095       1
   22038   22032   22035   22047       1   22038   22032   22041   22059       1
   22035   22032   22041   22059       1   22035   22044   22062   22083       1
   22032   22038   22050   22068       1   22032   22038   22053   22071       1
   22242   22230   22236   22245       1   22239   22227   22236   22245       1
   22233   22221   22230   22236       1   22233   22221   22230   22242       1
   22230   22236   22227   22239       1   22227   22236   22230   22242       1
   22221   22230   22236   22245       1   22218   22200   22221   22233       1
   22218   22227   22236   22245       1   22215   22197   22218   22227       1
   22212   22194   22206   22224       1   22209   22188   22206   22224       1
   22203   22185   22200   22218       1   22203   22185   22200   22221       1
   22200   22218   22197   22215       1   22200   22218   22227   22239       1
   22200   22221   22230   22242       1   22197   22218   22227   22239       1
   22194   22206   22188   22209       1   22191   22170   22188   22206       1
   22191   22170   22188   22209       1   22188   22206   22194   22212       1
   22185   22200   22221   22233       1   22182   22164   22185   22203       1
   22179   22161   22182   22197       1   22176   22158   22173   22194       1
   22173   22152   22170   22191       1   22173   22194   22206   22224       1
   22170   22188   22206   22224       1   22167   22149   22164   22182       1
   22167   22149   22164   22185       1   22164   22182   22161   22179       1
   22164   22182   22197   22215       1   22161   22146   22158   22176       1
   22161   22182   22197   22215       1   22158   22146   22161   22179       1
   22158   22173   22194   22212       1   22155   22143   22152   22170       1
   22155   22143   22152   22173       1   22152   22170   22188   22209       1
   22152   22173   22158   22176       1   22152   22173   22194   22212       1
   22149   22140   22143   22155       1   22149   22164   22185   22203       1
   22146   22140   22143   22155       1   22146   22140   22149   22167       1
   22143   22140   22149   22167       1   22143   22152   22170   22191       1
   22140   22146   22158   22176       1   22140   22146   22161   22179       1
   22350   22338   22344   22353       1   22347   22335   22344   22353       1
   22341   22329   22338   22344       1   22341   22329   22338   22350       1
   22338   22344   22335   22347       1   22335   22344   22338   22350       1
   22329   22338   22344   22353       1   22326   22308   22329   22341       1
   22326   22335   22344   22353       1   22323   22305   22326   22335       1
   22320   22302   22314   22332       1   22317   22296   22314   22332       1
   22311   22293   22308   22326       1   22311   22293   22308   22329       1
   22308   22326   22305   22323       1   22308   22326   22335   22347       1
   22308   22329   22338   22350       1   22305   22326   22335   22347       1
   22302   22314   22296   22317       1   22299   22278   22296   22314       1
   22299   22278   22296   22317       1   22296   22314   22302   22320       1
   22293   22308   22329   22341       1   22290   22272   22293   22311       1
   22287   22269   22290   22305       1   22284   22266   22281   22302       1
   22281   22260   22278   22299       1   22281   22302   22314   22332       1
   22278   22296   22314   22332       1   22275   22257   22272   22290       1
   22275   22257   22272   22293       1   22272   22290   22269   22287       1
   22272   22290   22305   22323       1   22269   22254   22266   22284       1
   22269   22290   22305   22323       1   22266   22254   22269   22287       1
   22266   22281   22302   22320       1   22263   22251   22260   22278       1
   22263   22251   22260   22281       1   22260   22278   22296   22317       1
   22260   22281   22266   22284       1   22260   22281   22302   22320       1
   22257   22248   22251   22263       1   22257   22272   22293   22311       1
   22254   22248   22251   22263       1   22254   22248   22257   22275       1
   22251   22248   22257   22275       1   22251   22260   22278   22299       1
   22248   22254   22266   22284       1   22248   22254   22269   22287       1
   22458   22446   22452   22461       1   22455   22443   22452   22461       1
   22449   22437   22446   22452       1   22449   22437   22446   22458       1
   22446   22452   22443   22455       1   22443   22452   22446   22458       1
   22437   22446   22452   22461       1   22434   22416   22437   22449       1
   22434   22443   22452   22461       1   22431   22413   22434   22443       1
   22428   22410   22422   22440       1   22425   22404   22422   22440       1
   22419   22401   22416   22434       1   22419   22401   22416   22437       1
   22416   22434   22413   22431       1   22416   22434   22443   22455       1
   22416   22437   22446   22458       1   22413   22434   22443   22455       1
   22410   22422   22404   22425       1   22407   22386   22404   22422       1
   22407   22386   22404   22425       1   22404   22422   22410   22428       1
   22401   22416   22437   22449       1   22398   22380   22401   22419       1
   22395   22377   22398   22413       1   22392   22374   22389   22410       1
   22389   22368   22386   22407       1   22389   22410   22422   22440       1
   22386   22404   22422   22440       1   22383   22365   22380   22398       1
   22383   22365   22380   22401       1   22380   22398   22377   22395       1
   22380   22398   22413   22431       1   22377   22362   22374   22392       1
   22377   22398   22413   22431       1   22374   22362   22377   22395       1
   22374   22389   22410   22428       1   22371   22359   22368   22386       1
   22371   22359   22368   22389       1   22368   22386   22404   22425       1
   22368   22389   22374   22392       1   22368   22389   22410   22428       1
   22365   22356   22359   22371       1   22365   22380   22401   22419       1
   22362   22356   22359   22371       1   22362   22356   22365   22383       1
   22359   22356   22365   22383       1   22359   22368   22386   22407       1
   22356   22362   22374   22392       1   22356   22362   22377   22395       1
   22566   22554   22560   22569       1   22563   22551   22560   22569       1
   22557   22545   22554   22560       1   22557   22545   22554   22566       1
   22554   22560   22551   22563       1   22551   22560   22554   22566       1
   22545   22554   22560   22569       1   22542   22524   22545   22557       1
   22542   22551   22560   22569       1   22539   22521   22542   22551       1
   22536   22518   22530   22548       1   22533   22512   22530   22548       1
   22527   22509   22524   22542       1   22527   22509   22524   22545       1
   22524   22542   22521   22539       1   22524   22542   22551   22563       1
   22524   22545   22554   22566       1   22521   22542   22551   22563       1
   22518   22530   22512   22533       1   22515   22494   22512   22530       1
   22515   22494   22512   22533       1   22512   22530   22518   22536       1
   22509   22524   22545   22557       1   22506   22488   22509   22527       1
   22503   22485   22506   22521       1   22500   22482   22497   22518       1
   22497   22476   22494   22515       1   22497   22518   22530   22548       1
   22494   22512   22530   22548       1   22491   22473   22488   22506       1
   22491   22473   22488   22509       1   22488   22506   22485   22503       1
   22488   22506   22521   22539       1   22485   22470   22482   22500       1
   22485   22506   22521   22539       1   22482   22470   22485   22503       1
   22482   22497   22518   22536       1   22479   22467   22476   22494       1
   22479   22467   22476   22497       1   22476   22494   22512   22533       1
   22476   22497   22482   22500       1   22476   22497   22518   22536       1
   22473   22464   22467   22479       1   22473   22488   22509   22527       1
   22470   22464   22467   22479       1   22470   22464   22473   22491       1
   22467   22464   22473   22491       1   22467   22476   22494   22515       1
   22464   22470   22482   22500       1   22464   22470   22485   22503       1
   22674   22662   22668   22677       1   22671   22659   22668   22677       1
   22665   22653   22662   22668       1   22665   22653   22662   22674       1
   22662   22668   22659   22671       1   22659   22668   22662   22674       1
   22653   22662   22668   22677       1   22650   22632   22653   22665       1
   22650   22659   22668   22677       1   22647   22629   22650   22659       1
   22644   22626   22638   22656       1   22641   22620   22638   22656       1
   22635   22617   22632   22650       1   22635   22617   22632   22653       1
   22632   22650   22629   22647       1   22632   22650   22659   22671       1
   22632   22653   22662   22674       1   22629   22650   22659   22671       1
   22626   22638   22620   22641       1   22623   22602   22620   22638       1
   22623   22602   22620   22641       1   22620   22638   22626   22644       1
   22617   22632   22653   22665       1   22614   22596   22617   22635       1
   22611   22593   22614   22629       1   22608   22590   22605   22626       1
   22605   22584   22602   22623       1   22605   22626   22638   22656       1
   22602   22620   22638   22656       1   22599   22581   22596   22614       1
   22599   22581   22596   22617       1   22596   22614   22593   22611       1
   22596   22614   22629   22647       1   22593   22578   22590   22608       1
   22593   22614   22629   22647       1   22590   22578   22593   22611       1
   22590   22605   22626   22644       1   22587   22575   22584   22602       1
   22587   22575   22584   22605       1   22584   22602   22620   22641       1
   22584   22605   22590   22608       1   22584   22605   22626   22644       1
   22581   22572   22575   22587       1   22581   22596   22617   22635       1
   22578   22572   22575   22587       1   22578   22572   22581   22599       1
   22575   22572   22581   22599       1   22575   22584   22602   22623       1
   22572   22578   22590   22608       1   22572   22578   22593   22611       1
   22782   22770   22776   22785       1   22779   22767   22776   22785       1
   22773   22761   22770   22776       1   22773   22761   22770   22782       1
   22770   22776   22767   22779       1   22767   22776   22770   22782       1
   22761   22770   22776   22785       1   22758   22740   22761   22773       1
   22758   22767   22776   22785       1   22755   22737   22758   22767       1
   22752   22734   22746   22764       1   22749   22728   22746   22764       1
   22743   22725   22740   22758       1   22743   22725   22740   22761       1
   22740   22758   22737   22755       1   22740   22758   22767   22779       1
   22740   22761   22770   22782       1   22737   22758   22767   22779       1
   22734   22746   22728   22749       1   22731   22710   22728   22746       1
   22731   22710   22728   22749       1   22728   22746   22734   22752       1
   22725   22740   22761   22773       1   22722   22704   22725   22743       1
   22719   22701   22722   22737       1   22716   22698   22713   22734       1
   22713   22692   22710   22731       1   22713   22734   22746   22764       1
   22710   22728   22746   22764       1   22707   22689   22704   22722       1
   22707   22689   22704   22725       1   22704   22722   22701   22719       1
   22704   22722   22737   22755       1   22701   22686   22698   22716       1
   22701   22722   22737   22755       1   22698   22686   22701   22719       1
   22698   22713   22734   22752       1   22695   22683   22692   22710       1
   22695   22683   22692   22713       1   22692   22710   22728   22749       1
   22692   22713   22698   22716       1   22692   22713   22734   22752       1
   22689   22680   22683   22695       1   22689   22704   22725   22743       1
   22686   22680   22683   22695       1   22686   22680   22689   22707       1
   22683   22680   22689   22707       1   22683   22692   22710   22731       1
   22680   22686   22698   22716       1   22680   22686   22701   22719       1
   22890   22878   22884   22893       1   22887   22875   22884   22893       1
   22881   22869   22878   22884       1   22881   22869   22878   22890       1
   22878   22884   22875   22887       1   22875   22884   22878   22890       1
   22869   22878   22884   22893       1   22866   22848   22869   22881       1
   22866   22875   22884   22893       1   22863   22845   22866   22875       1
   22860   22842   22854   22872       1   22857   22836   22854   22872       1
   22851   22833   22848   22866       1   22851   22833   22848   22869       1
   22848   22866   22845   22863       1   22848   22866   22875   22887       1
   22848   22869   22878   22890       1   22845   22866   22875   22887       1
   22842   22854   22836   22857       1   22839   22818   22836   22854       1
   22839   22818   22836   22857       1   22836   22854   22842   22860       1
   22833   22848   22869   22881       1   22830   22812   22833   22851       1
   22827   22809   22830   22845       1   22824   22806   22821   22842       1
   22821   22800   22818   22839       1   22821   22842   22854   22872       1
   22818   22836   22854   22872       1   22815   22797   22812   22830       1
   22815   22797   22812   22833       1   22812   22830   22809   22827       1
   22812   22830   22845   22863       1   22809   22794   22806   22824       1
   22809   22830   22845   22863       1   22806   22794   22809   22827       1
   22806   22821   22842   22860       1   22803   22791   22800   22818       1
   22803   22791   22800   22821       1   22800   22818   22836   22857       1
   22800   22821   22806   22824       1   22800   22821   22842   22860       1
   22797   22788   22791   22803       1   22797   22812   22833   22851       1
   22794   22788   22791   22803       1   22794   22788   22797   22815       1
   22791   22788   22797   22815       1   22791   22800   22818   22839       1
   22788   22794   22806   22824       1   22788   22794   22809   22827       1
   22998   22986   22992   23001       1   22995   22983   22992   23001       1
   22989   22977   22986   22992       1   22989   22977   22986   22998       1
   22986   22992   22983   22995       1   22983   22992   22986   22998       1
   22977   22986   22992   23001       1   22974   22956   22977   22989       1
   22974   22983   22992   23001       1   22971   22953   22974   22983       1
   22968   22950   22962   22980       1   22965   22944   22962   22980       1
   22959   22941   22956   22974       1   22959   22941   22956   22977       1
   22956   22974   22953   22971       1   22956   22974   22983   22995       1
   22956   22977   22986   22998       1   22953   22974   22983   22995       1
   22950   22962   22944   22965       1   22947   22926   22944   22962       1
   22947   22926   22944   22965       1   22944   22962   22950   22968       1
   22941   22956   22977   22989       1   22938   22920   22941   22959       1
   22935   22917   22938   22953       1   22932   22914   22929   22950       1
   22929   22908   22926   22947       1   22929   22950   22962   22980       1
   22926   22944   22962   22980       1   22923   22905   22920   22938       1
   22923   22905   22920   22941       1   22920   22938   22917   22935       1
   22920   22938   22953   22971       1   22917   22902   22914   22932       1
   22917   22938   22953   22971       1   22914   22902   22917   22935       1
   22914   22929   22950   22968       1   22911   22899   22908   22926       1
   22911   22899   22908   22929       1   22908   22926   22944   22965       1
   22908   22929   22914   22932       1   22908   22929   22950   22968       1
   22905   22896   22899   22911       1   22905   22920   22941   22959       1
   22902   22896   22899   22911       1   22902   22896   22905   22923       1
   22899   22896   22905   22923       1   22899   22908   22926   22947       1
   22896   22902   22914   22932       1   22896   22902   22917   22935       1
   23106   23094   23100   23109       1   23103   23091   23100   23109       1
   23097   23085   23094   23100       1   23097   23085   23094   23106       1
   23094   23100   23091   23103       1   23091   23100   23094   23106       1
   23085   23094   23100   23109       1   23082   23064   23085   23097       1
   23082   23091   23100   23109       1   23079   23061   23082   23091       1
   23076   23058   23070   23088       1   23073   23052   23070   23088       1
   23067   23049   23064   23082       1   23067   23049   23064   23085       1
   23064   23082   23061   23079       1   23064   23082   23091   23103       1
   23064   23085   23094   23106       1   23061   23082   23091   23103       1
   23058   23070   23052   23073       1   23055   23034   23052   23070       1
   23055   23034   23052   23073       1   23052   23070   23058   23076       1
   23049   23064   23085   23097       1   23046   23028   23049   23067       1
   23043   23025   23046   23061       1   23040   23022   23037   23058       1
   23037   23016   23034   23055       1   23037   23058   23070   23088       1
   23034   23052   23070   23088       1   23031   23013   23028   23046       1
   23031   23013   23028   23049       1   23028   23046   23025   23043       1
   23028   23046   23061   23079       1   23025   23010   23022   23040       1
   23025   23046   23061   23079       1   23022   23010   23025   23043       1
   23022   23037   23058   23076       1   23019   23007   23016   23034       1
   23019   23007   23016   23037       1   23016   23034   23052   23073       1
   23016   23037   23022   23040       1   23016   23037   23058   23076       1
   23013   23004   23007   23019       1   23013   23028   23049   23067       1
   23010   23004   23007   23019       1   23010   23004   23013   23031       1
   23007   23004   23013   23031       1   23007   23016   23034   23055       1
   23004   23010   23022   23040       1   23004   23010   23025   23043       1
   23214   23202   23208   23217       1   23211   23199   23208   23217       1
   23205   23193   23202   23208       1   23205   23193   23202   23214       1
   23202   23208   23199   23211       1   23199   23208   23202   23214       1
   23193   23202   23208   23217       1   23190   23172   23193   23205       1
   23190   23199   23208   23217       1   23187   23169   23190   23199       1
   23184   23166   23178   23196       1   23181   23160   23178   23196       1
   23175   23157   23172   23190       1   23175   23157   23172   23193       1
   23172   23190   23169   23187       1   23172   23190   23199   23211       1
   23172   23193   23202   23214       1   23169   23190   23199   23211       1
   23166   23178   23160   23181       1   23163   23142   23160   23178       1
   23163   23142   23160   23181       1   23160   23178   23166   23184       1
   23157   23172   23193   23205       1   23154   23136   23157   23175       1
   23151   23133   23154   23169       1   23148   23130   23145   23166       1
   23145   23124   23142   23163       1   23145   23166   23178   23196       1
   23142   23160   23178   23196       1   23139   23121   23136   23154       1
   23139   23121   23136   23157       1   23136   23154   23133   23151       1
   23136   23154   23169   23187       1   23133   23118   23130   23148       1
   23133   23154   23169   23187       1   23130   23118   23133   23151       1
   23130   23145   23166   23184       1   23127   23115   23124   23142       1
   23127   23115   23124   23145       1   23124   23142   23160   23181       1
   23124   23145   23130   23148       1   23124   23145   23166   23184       1
   23121   23112   23115   23127       1   23121   23136   23157   23175       1
   23118   23112   23115   23127       1   23118   23112   23121   23139       1
   23115   23112   23121   23139       1   23115   23124   23142   23163       1
   23112   23118   23130   23148       1   23112   23118   23133   23151       1
   23322   23310   23316   23325       1   23319   23307   23316   23325       1
   23313   23301   23310   23316       1   23313   23301   23310   23322       1
   23310   23316   23307   23319       1   23307   23316   23310   23322       1
   23301   23310   23316   23325       1   23298   23280   23301   23313       1
   23298   23307   23316   23325       1   23295   23277   23298   23307       1
   23292   23274   23286   23304       1   23289   23268   23286   23304       1
   23283   23265   23280   23298       1   23283   23265   23280   23301       1
   23280   23298   23277   23295       1   23280   23298   23307   23319       1
   23280   23301   23310   23322       1   23277   23298   23307   23319       1
   23274   23286   23268   23289       1   23271   23250   23268   23286       1
   23271   23250   23268   23289       1   23268   23286   23274   23292       1
   23265   23280   23301   23313       1   23262   23244   23265   23283       1
   23259   23241   23262   23277       1   23256   23238   23253   23274       1
   23253   23232   23250   23271       1   23253   23274   23286   23304       1
   23250   23268   23286   23304       1   23247   23229   23244   23262       1
   23247   23229   23244   23265       1   23244   23262   23241   23259       1
   23244   23262   23277   23295       1   23241   23226   23238   23256       1
   23241   23262   23277   23295       1   23238   23226   23241   23259       1
   23238   23253   23274   23292       1   23235   23223   23232   23250       1
   23235   23223   23232   23253       1   23232   23250   23268   23289       1
   23232   23253   23238   23256       1   23232   23253   23274   23292       1
   23229   23220   23223   23235       1   23229   23244   23265   23283       1
   23226   23220   23223   23235       1   23226   23220   23229   23247       1
   23223   23220   23229   23247       1   23223   23232   23250   23271       1
   23220   23226   23238   23256       1   23220   23226   23241   23259       1
   23430   23418   23424   23433       1   23427   23415   23424   23433       1
   23421   23409   23418   23424       1   23421   23409   23418   23430       1
   23418   23424   23415   23427       1   23415   23424   23418   23430       1
   23409   23418   23424   23433       1   23406   23388   23409   23421       1
   23406   23415   23424   23433       1   23403   23385   23406   23415       1
   23400   23382   23394   23412       1   23397   23376   23394   23412       1
   23391   23373   23388   23406       1   23391   23373   23388   23409       1
   23388   23406   23385   23403       1   23388   23406   23415   23427       1
   23388   23409   23418   23430       1   23385   23406   23415   23427       1
   23382   23394   23376   23397       1   23379   23358   23376   23394       1
   23379   23358   23376   23397       1   23376   23394   23382   23400       1
   23373   23388   23409   23421       1   23370   23352   23373   23391       1
   23367   23349   23370   23385       1   23364   23346   23361   23382       1
   23361   23340   23358   23379       1   23361   23382   23394   23412       1
   23358   23376   23394   23412       1   23355   23337   23352   23370       1
   23355   23337   23352   23373       1   23352   23370   23349   23367       1
   23352   23370   23385   23403       1   23349   23334   23346   23364       1
   23349   23370   23385   23403       1   23346   23334   23349   23367       1
   23346   23361   23382   23400       1   23343   23331   23340   23358       1
   23343   23331   23340   23361       1   23340   23358   23376   23397       1
   23340   23361   23346   23364       1   23340   23361   23382   23400       1
   23337   23328   23331   23343       1   23337   23352   23373   23391       1
   23334   23328   23331   23343       1   23334   23328   23337   23355       1
   23331   23328   23337   23355       1   23331   23340   23358   23379       1
   23328   23334   23346   23364       1   23328   23334   23349   23367       1
   23538   23526   23532   23541       1   23535   23523   23532   23541       1
   23529   23517   23526   23532       1   23529   23517   23526   23538       1
   23526   23532   23523   23535       1   23523   23532   23526   23538       1
   23517   23526   23532   23541       1   23514   23496   23517   23529       1
   23514   23523   23532   23541       1   23511   23493   23514   23523       1
   23508   23490   23502   23520       1   23505   23484   23502   23520       1
   23499   23481   23496   23514       1   23499   23481   23496   23517       1
   23496   23514   23493   23511       1   23496   23514   23523   23535       1
   23496   23517   23526   23538       1   23493   23514   23523   23535       1
   23490   23502   23484   23505       1   23487   23466   23484   23502       1
   23487   23466   23484   23505       1   23484   23502   23490   23508       1
   23481   23496   23517   23529       1   23478   23460   23481   23499       1
   23475   23457   23478   23493       1   23472   23454   23469   23490       1
   23469   23448   23466   23487       1   23469   23490   23502   23520       1
   23466   23484   23502   23520       1   23463   23445   23460   23478       1
   23463   23445   23460   23481       1   23460   23478   23457   23475       1
   23460   23478   23493   23511       1   23457   23442   23454   23472       1
   23457   23478   23493   23511       1   23454   23442   23457   23475       1
   23454   23469   23490   23508       1   23451   23439   23448   23466       1
   23451   23439   23448   23469       1   23448   23466   23484   23505       1
   23448   23469   23454   23472       1   23448   23469   23490   23508       1
   23445   23436   23439   23451       1   23445   23460   23481   23499       1
   23442   23436   23439   23451       1   23442   23436   23445   23463       1
   23439   23436   23445   23463       1   23439   23448   23466   23487       1
   23436   23442   23454   23472       1   23436   23442   23457   23475       1
   23646   23634   23640   23649       1   23643   23631   23640   23649       1
   23637   23625   23634   23640       1   23637   23625   23634   23646       1
   23634   23640   23631   23643       1   23631   23640   23634   23646       1
   23625   23634   23640   23649       1   23622   23604   23625   23637       1
   23622   23631   23640   23649       1   23619   23601   23622   23631       1
   23616   23598   23610   23628       1   23613   23592   23610   23628       1
   23607   23589   23604   23622       1   23607   23589   23604   23625       1
   23604   23622   23601   23619       1   23604   23622   23631   23643       1
   23604   23625   23634   23646       1   23601   23622   23631   23643       1
   23598   23610   23592   23613       1   23595   23574   23592   23610       1
   23595   23574   23592   23613       1   23592   23610   23598   23616       1
   23589   23604   23625   23637       1   23586   23568   23589   23607       1
   23583   23565   23586   23601       1   23580   23562   23577   23598       1
   23577   23556   23574   23595       1   23577   23598   23610   23628       1
   23574   23592   23610   23628       1   23571   23553   23568   23586       1
   23571   23553   23568   23589       1   23568   23586   23565   23583       1
   23568   23586   23601   23619       1   23565   23550   23562   23580       1
   23565   23586   23601   23619       1   23562   23550   23565   23583       1
   23562   23577   23598   23616       1   23559   23547   23556   23574       1
   23559   23547   23556   23577       1   23556   23574   23592   23613       1
   23556   23577   23562   23580       1   23556   23577   23598   23616       1
   23553   23544   23547   23559       1   23553   23568   23589   23607       1
   23550   23544   23547   23559       1   23550   23544   23553   23571       1
   23547   23544   23553   23571       1   23547   23556   23574   23595       1
   23544   23550   23562   23580       1   23544   23550   23565   23583       1
   23754   23742   23748   23757       1   23751   23739   23748   23757       1
   23745   23733   23742   23748       1   23745   23733   23742   23754       1
   23742   23748   23739   23751       1   23739   23748   23742   23754       1
   23733   23742   23748   23757       1   23730   23712   23733   23745       1
   23730   23739   23748   23757       1   23727   23709   23730   23739       1
   23724   23706   23718   23736       1   23721   23700   23718   23736       1
   23715   23697   23712   23730       1   23715   23697   23712   23733       1
   23712   23730   23709   23727       1   23712   23730   23739   23751       1
   23712   23733   23742   23754       1   23709   23730   23739   23751       1
   23706   23718   23700   23721       1   23703   23682   23700   23718       1
   23703   23682   23700   23721       1   23700   23718   23706   23724       1
   23697   23712   23733   23745       1   23694   23676   23697   23715       1
   23691   23673   23694   23709       1   23688   23670   23685   23706       1
   23685   23664   23682   23703       1   23685   23706   23718   23736       1
   23682   23700   23718   23736       1   23679   23661   23676   23694       1
   23679   23661   23676   23697       1   23676   23694   23673   23691       1
   23676   23694   23709   23727       1   23673   23658   23670   23688       1
   23673   23694   23709   23727       1   23670   23658   23673   23691       1
   23670   23685   23706   23724       1   23667   23655   23664   23682       1
   23667   23655   23664   23685       1   23664   23682   23700   23721       1
   23664   23685   23670   23688       1   23664   23685   23706   23724       1
   23661   23652   23655   23667       1   23661   23676   23697   23715       1
   23658   23652   23655   23667       1   23658   23652   23661   23679       1
   23655   23652   23661   23679       1   23655   23664   23682   23703       1
   23652   23658   23670   23688       1   23652   23658   23673   23691       1
   23862   23850   23856   23865       1   23859   23847   23856   23865       1
   23853   23841   23850   23856       1   23853   23841   23850   23862       1
   23850   23856   23847   23859       1   23847   23856   23850   23862       1
   23841   23850   23856   23865       1   23838   23820   23841   23853       1
   23838   23847   23856   23865       1   23835   23817   23838   23847       1
   23832   23814   23826   23844       1   23829   23808   23826   23844       1
   23823   23805   23820   23838       1   23823   23805   23820   23841       1
   23820   23838   23817   23835       1   23820   23838   23847   23859       1
   23820   23841   23850   23862       1   23817   23838   23847   23859       1
   23814   23826   23808   23829       1   23811   23790   23808   23826       1
   23811   23790   23808   23829       1   23808   23826   23814   23832       1
   23805   23820   23841   23853       1   23802   23784   23805   23823       1
   23799   23781   23802   23817       1   23796   23778   23793   23814       1
   23793   23772   23790   23811       1   23793   23814   23826   23844       1
   23790   23808   23826   23844       1   23787   23769   23784   23802       1
   23787   23769   23784   23805       1   23784   23802   23781   23799       1
   23784   23802   23817   23835       1   23781   23766   23778   23796       1
   23781   23802   23817   23835       1   23778   23766   23781   23799       1
   23778   23793   23814   23832       1   23775   23763   23772   23790       1
   23775   23763   23772   23793       1   23772   23790   23808   23829       1
   23772   23793   23778   23796       1   23772   23793   23814   23832       1
   23769   23760   23763   23775       1   23769   23784   23805   23823       1
   23766   23760   23763   23775       1   23766   23760   23769   23787       1
   23763   23760   23769   23787       1   23763   23772   23790   23811       1
   23760   23766   23778   23796       1   23760   23766   23781   23799       1
   23970   23958   23964   23973       1   23967   23955   23964   23973       1
   23961   23949   23958   23964       1   23961   23949   23958   23970       1
   23958   23964   23955   23967       1   23955   23964   23958   23970       1
   23949   23958   23964   23973       1   23946   23928   23949   23961       1
   23946   23955   23964   23973       1   23943   23925   23946   23955       1
   23940   23922   23934   23952       1   23937   23916   23934   23952       1
   23931   23913   23928   23946       1   23931   23913   23928   23949       1
   23928   23946   23925   23943       1   23928   23946   23955   23967       1
   23928   23949   23958   23970       1   23925   23946   23955   23967       1
   23922   23934   23916   23937       1   23919   23898   23916   23934       1
   23919   23898   23916   23937       1   23916   23934   23922   23940       1
   23913   23928   23949   23961       1   23910   23892   23913   23931       1
   23907   23889   23910   23925       1   23904   23886   23901   23922       1
   23901   23880   23898   23919       1   23901   23922   23934   23952       1
   23898   23916   23934   23952       1   23895   23877   23892   23910       1
   23895   23877   23892   23913       1   23892   23910   23889   23907       1
   23892   23910   23925   23943       1   23889   23874   23886   23904       1
   23889   23910   23925   23943       1   23886   23874   23889   23907       1
   23886   23901   23922   23940       1   23883   23871   23880   23898       1
   23883   23871   23880   23901       1   23880   23898   23916   23937       1
   23880   23901   23886   23904       1   23880   23901   23922   23940       1
   23877   23868   23871   23883       1   23877   23892   23913   23931       1
   23874   23868   23871   23883       1   23874   23868   23877   23895       1
   23871   23868   23877   23895       1   23871   23880   23898   23919       1
   23868   23874   23886   23904       1   23868   23874   23889   23907       1
   24078   24066   24072   24081       1   24075   24063   24072   24081       1
   24069   24057   24066   24072       1   24069   24057   24066   24078       1
   24066   24072   24063   24075       1   24063   24072   24066   24078       1
   24057   24066   24072   24081       1   24054   24036   24057   24069       1
   24054   24063   24072   24081       1   24051   24033   24054   24063       1
   24048   24030   24042   24060       1   24045   24024   24042   24060       1
   24039   24021   24036   24054       1   24039   24021   24036   24057       1
   24036   24054   24033   24051       1   24036   24054   24063   24075       1
   24036   24057   24066   24078       1   24033   24054   24063   24075       1
   24030   24042   24024   24045       1   24027   24006   24024   24042       1
   24027   24006   24024   24045       1   24024   24042   24030   24048       1
   24021   24036   24057   24069       1   24018   24000   24021   24039       1
   24015   23997   24018   24033       1   24012   23994   24009   24030       1
   24009   23988   24006   24027       1   24009   24030   24042   24060       1
   24006   24024   24042   24060       1   24003   23985   24000   24018       1
   24003   23985   24000   24021       1   24000   24018   23997   24015       1
   24000   24018   24033   24051       1   23997   23982   23994   24012       1
   23997   24018   24033   24051       1   23994   23982   23997   24015       1
   23994   24009   24030   24048       1   23991   23979   23988   24006       1
   23991   23979   23988   24009       1   23988   24006   24024   24045       1
   23988   24009   23994   24012       1   23988   24009   24030   24048       1
   23985   23976   23979   23991       1   23985   24000   24021   24039       1
   23982   23976   23979   23991       1   23982   23976   23985   24003       1
   23979   23976   23985   24003       1   23979   23988   24006   24027       1
   23976   23982   23994   24012       1   23976   23982   23997   24015       1
   24186   24174   24180   24189       1   24183   24171   24180   24189       1
   24177   24165   24174   24180       1   24177   24165   24174   24186       1
   24174   24180   24171   24183       1   24171   24180   24174   24186       1
   24165   24174   24180   24189       1   24162   24144   24165   24177       1
   24162   24171   24180   24189       1   24159   24141   24162   24171       1
   24156   24138   24150   24168       1   24153   24132   24150   24168       1
   24147   24129   24144   24162       1   24147   24129   24144   24165       1
   24144   24162   24141   24159       1   24144   24162   24171   24183       1
   24144   24165   24174   24186       1   24141   24162   24171   24183       1
   24138   24150   24132   24153       1   24135   24114   24132   24150       1
   24135   24114   24132   24153       1   24132   24150   24138   24156       1
   24129   24144   24165   24177       1   24126   24108   24129   24147       1
   24123   24105   24126   24141       1   24120   24102   24117   24138       1
   24117   24096   24114   24135       1   24117   24138   24150   24168       1
   24114   24132   24150   24168       1   24111   24093   24108   24126       1
   24111   24093   24108   24129       1   24108   24126   24105   24123       1
   24108   24126   24141   24159       1   24105   24090   24102   24120       1
   24105   24126   24141   24159       1   24102   24090   24105   24123       1
   24102   24117   24138   24156       1   24099   24087   24096   24114       1
   24099   24087   24096   24117       1   24096   24114   24132   24153       1
   24096   24117   24102   24120       1   24096   24117   24138   24156       1
   24093   24084   24087   24099       1   24093   24108   24129   24147       1
   24090   24084   24087   24099       1   24090   24084   24093   24111       1
   24087   24084   24093   24111       1   24087   24096   24114   24135       1
   24084   24090   24102   24120       1   24084   24090   24105   24123       1
   24294   24282   24288   24297       1   24291   24279   24288   24297       1
   24285   24273   24282   24288       1   24285   24273   24282   24294       1
   24282   24288   24279   24291       1   24279   24288   24282   24294       1
   24273   24282   24288   24297       1   24270   24252   24273   24285       1
   24270   24279   24288   24297       1   24267   24249   24270   24279       1
   24264   24246   24258   24276       1   24261   24240   24258   24276       1
   24255   24237   24252   24270       1   24255   24237   24252   24273       1
   24252   24270   24249   24267       1   24252   24270   24279   24291       1
   24252   24273   24282   24294       1   24249   24270   24279   24291       1
   24246   24258   24240   24261       1   24243   24222   24240   24258       1
   24243   24222   24240   24261       1   24240   24258   24246   24264       1
   24237   24252   24273   24285       1   24234   24216   24237   24255       1
   24231   24213   24234   24249       1   24228   24210   24225   24246       1
   24225   24204   24222   24243       1   24225   24246   24258   24276       1
   24222   24240   24258   24276       1   24219   24201   24216   24234       1
   24219   24201   24216   24237       1   24216   24234   24213   24231       1
   24216   24234   24249   24267       1   24213   24198   24210   24228       1
   24213   24234   24249   24267       1   24210   24198   24213   24231       1
   24210   24225   24246   24264       1   24207   24195   24204   24222       1
   24207   24195   24204   24225       1   24204   24222   24240   24261       1
   24204   24225   24210   24228       1   24204   24225   24246   24264       1
   24201   24192   24195   24207       1   24201   24216   24237   24255       1
   24198   24192   24195   24207       1   24198   24192   24201   24219       1
   24195   24192   24201   24219       1   24195   24204   24222   24243       1
   24192   24198   24210   24228       1   24192   24198   24213   24231       1
   24402   24390   24396   24405       1   24399   24387   24396   24405       1
   24393   24381   24390   24396       1   24393   24381   24390   24402       1
   24390   24396   24387   24399       1   24387   24396   24390   24402       1
   24381   24390   24396   24405       1   24378   24360   24381   24393       1
   24378   24387   24396   24405       1   24375   24357   24378   24387       1
   24372   24354   24366   24384       1   24369   24348   24366   24384       1
   24363   24345   24360   24378       1   24363   24345   24360   24381       1
   24360   24378   24357   24375       1   24360   24378   24387   24399       1
   24360   24381   24390   24402       1   24357   24378   24387   24399       1
   24354   24366   24348   24369       1   24351   24330   24348   24366       1
   24351   24330   24348   24369       1   24348   24366   24354   24372       1
   24345   24360   24381   24393       1   24342   24324   24345   24363       1
   24339   24321   24342   24357       1   24336   24318   24333   24354       1
   24333   24312   24330   24351       1   24333   24354   24366   24384       1
   24330   24348   24366   24384       1   24327   24309   24324   24342       1
   24327   24309   24324   24345       1   24324   24342   24321   24339       1
   24324   24342   24357   24375       1   24321   24306   24318   24336       1
   24321   24342   24357   24375       1   24318   24306   24321   24339       1
   24318   24333   24354   24372       1   24315   24303   24312   24330       1
   24315   24303   24312   24333       1   24312   24330   24348   24369       1
   24312   24333   24318   24336       1   24312   24333   24354   24372       1
   24309   24300   24303   24315       1   24309   24324   24345   24363       1
   24306   24300   24303   24315       1   24306   24300   24309   24327       1
   24303   24300   24309   24327       1   24303   24312   24330   24351       1
   24300   24306   24318   24336       1   24300   24306   24321   24339       1
   24510   24498   24504   24513       1   24507   24495   24504   24513       1
   24501   24489   24498   24504       1   24501   24489   24498   24510       1
   24498   24504   24495   24507       1   24495   24504   24498   24510       1
   24489   24498   24504   24513       1   24486   24468   24489   24501       1
   24486   24495   24504   24513       1   24483   24465   24486   24495       1
   24480   24462   24474   24492       1   24477   24456   24474   24492       1
   24471   24453   24468   24486       1   24471   24453   24468   24489       1
   24468   24486   24465   24483       1   24468   24486   24495   24507       1
   24468   24489   24498   24510       1   24465   24486   24495   24507       1
   24462   24474   24456   24477       1   24459   24438   24456   24474       1
   24459   24438   24456   24477       1   24456   24474   24462   24480       1
   24453   24468   24489   24501       1   24450   24432   24453   24471       1
   24447   24429   24450   24465       1   24444   24426   24441   24462       1
   24441   24420   24438   24459       1   24441   24462   24474   24492       1
   24438   24456   24474   24492       1   24435   24417   24432   24450       1
   24435   24417   24432   24453       1   24432   24450   24429   24447       1
   24432   24450   24465   24483       1   24429   24414   24426   24444       1
   24429   24450   24465   24483       1   24426   24414   24429   24447       1
   24426   24441   24462   24480       1   24423   24411   24420   24438       1
   24423   24411   24420   24441       1   24420   24438   24456   24477       1
   24420   24441   24426   24444       1   24420   24441   24462   24480       1
   24417   24408   24411   24423       1   24417   24432   24453   24471       1
   24414   24408   24411   24423       1   24414   24408   24417   24435       1
   24411   24408   24417   24435       1   24411   24420   24438   24459       1
   24408   24414   24426   24444       1   24408   24414   24429   24447       1
   24618   24606   24612   24621       1   24615   24603   24612   24621       1
   24609   24597   24606   24612       1   24609   24597   24606   24618       1
   24606   24612   24603   24615       1   24603   24612   24606   24618       1
   24597   24606   24612   24621       1   24594   24576   24597   24609       1
   24594   24603   24612   24621       1   24591   24573   24594   24603       1
   24588   24570   24582   24600       1   24585   24564   24582   24600       1
   24579   24561   24576   24594       1   24579   24561   24576   24597       1
   24576   24594   24573   24591       1   24576   24594   24603   24615       1
   24576   24597   24606   24618       1   24573   24594   24603   24615       1
   24570   24582   24564   24585       1   24567   24546   24564   24582       1
   24567   24546   24564   24585       1   24564   24582   24570   24588       1
   24561   24576   24597   24609       1   24558   24540   24561   24579       1
   24555   24537   24558   24573       1   24552   24534   24549   24570       1
   24549   24528   24546   24567       1   24549   24570   24582   24600       1
   24546   24564   24582   24600       1   24543   24525   24540   24558       1
   24543   24525   24540   24561       1   24540   24558   24537   24555       1
   24540   24558   24573   24591       1   24537   24522   24534   24552       1
   24537   24558   24573   24591       1   24534   24522   24537   24555       1
   24534   24549   24570   24588       1   24531   24519   24528   24546       1
   24531   24519   24528   24549       1   24528   24546   24564   24585       1
   24528   24549   24534   24552       1   24528   24549   24570   24588       1
   24525   24516   24519   24531       1   24525   24540   24561   24579       1
   24522   24516   24519   24531       1   24522   24516   24525   24543       1
   24519   24516   24525   24543       1   24519   24528   24546   24567       1
   24516   24522   24534   24552       1   24516   24522   24537   24555       1
   24726   24714   24720   24729       1   24723   24711   24720   24729       1
   24717   24705   24714   24720       1   24717   24705   24714   24726       1
   24714   24720   24711   24723       1   24711   24720   24714   24726       1
   24705   24714   24720   24729       1   24702   24684   24705   24717       1
   24702   24711   24720   24729       1   24699   24681   24702   24711       1
   24696   24678   24690   24708       1   24693   24672   24690   24708       1
   24687   24669   24684   24702       1   24687   24669   24684   24705       1
   24684   24702   24681   24699       1   24684   24702   24711   24723       1
   24684   24705   24714   24726       1   24681   24702   24711   24723       1
   24678   24690   24672   24693       1   24675   24654   24672   24690       1
   24675   24654   24672   24693       1   24672   24690   24678   24696       1
   24669   24684   24705   24717       1   24666   24648   24669   24687       1
   24663   24645   24666   24681       1   24660   24642   24657   24678       1
   24657   24636   24654   24675       1   24657   24678   24690   24708       1
   24654   24672   24690   24708       1   24651   24633   24648   24666       1
   24651   24633   24648   24669       1   24648   24666   24645   24663       1
   24648   24666   24681   24699       1   24645   24630   24642   24660       1
   24645   24666   24681   24699       1   24642   24630   24645   24663       1
   24642   24657   24678   24696       1   24639   24627   24636   24654       1
   24639   24627   24636   24657       1   24636   24654   24672   24693       1
   24636   24657   24642   24660       1   24636   24657   24678   24696       1
   24633   24624   24627   24639       1   24633   24648   24669   24687       1
   24630   24624   24627   24639       1   24630   24624   24633   24651       1
   24627   24624   24633   24651       1   24627   24636   24654   24675       1
   24624   24630   24642   24660       1   24624   24630   24645   24663       1
   24834   24822   24828   24837       1   24831   24819   24828   24837       1
   24825   24813   24822   24828       1   24825   24813   24822   24834       1
   24822   24828   24819   24831       1   24819   24828   24822   24834       1
   24813   24822   24828   24837       1   24810   24792   24813   24825       1
   24810   24819   24828   24837       1   24807   24789   24810   24819       1
   24804   24786   24798   24816       1   24801   24780   24798   24816       1
   24795   24777   24792   24810       1   24795   24777   24792   24813       1
   24792   24810   24789   24807       1   24792   24810   24819   24831       1
   24792   24813   24822   24834       1   24789   24810   24819   24831       1
   24786   24798   24780   24801       1   24783   24762   24780   24798       1
   24783   24762   24780   24801       1   24780   24798   24786   24804       1
   24777   24792   24813   24825       1   24774   24756   24777   24795       1
   24771   24753   24774   24789       1   24768   24750   24765   24786       1
   24765   24744   24762   24783       1   24765   24786   24798   24816       1
   24762   24780   24798   24816       1   24759   24741   24756   24774       1
   24759   24741   24756   24777       1   24756   24774   24753   24771       1
   24756   24774   24789   24807       1   24753   24738   24750   24768       1
   24753   24774   24789   24807       1   24750   24738   24753   24771       1
   24750   24765   24786   24804       1   24747   24735   24744   24762       1
   24747   24735   24744   24765       1   24744   24762   24780   24801       1
   24744   24765   24750   24768       1   24744   24765   24786   24804       1
   24741   24732   24735   24747       1   24741   24756   24777   24795       1
   24738   24732   24735   24747       1   24738   24732   24741   24759       1
   24735   24732   24741   24759       1   24735   24744   24762   24783       1
   24732   24738   24750   24768       1   24732   24738   24753   24771       1
   24942   24930   24936   24945       1   24939   24927   24936   24945       1
   24933   24921   24930   24936       1   24933   24921   24930   24942       1
   24930   24936   24927   24939       1   24927   24936   24930   24942       1
   24921   24930   24936   24945       1   24918   24900   24921   24933       1
   24918   24927   24936   24945       1   24915   24897   24918   24927       1
   24912   24894   24906   24924       1   24909   24888   24906   24924       1
   24903   24885   24900   24918       1   24903   24885   24900   24921       1
   24900   24918   24897   24915       1   24900   24918   24927   24939       1
   24900   24921   24930   24942       1   24897   24918   24927   24939       1
   24894   24906   24888   24909       1   24891   24870   24888   24906       1
   24891   24870   24888   24909       1   24888   24906   24894   24912       1
   24885   24900   24921   24933       1   24882   24864   24885   24903       1
   24879   24861   24882   24897       1   24876   24858   24873   24894       1
   24873   24852   24870   24891       1   24873   24894   24906   24924       1
   24870   24888   24906   24924       1   24867   24849   24864   24882       1
   24867   24849   24864   24885       1   24864   24882   24861   24879       1
   24864   24882   24897   24915       1   24861   24846   24858   24876       1
   24861   24882   24897   24915       1   24858   24846   24861   24879       1
   24858   24873   24894   24912       1   24855   24843   24852   24870       1
   24855   24843   24852   24873       1   24852   24870   24888   24909       1
   24852   24873   24858   24876       1   24852   24873   24894   24912       1
   24849   24840   24843   24855       1   24849   24864   24885   24903       1
   24846   24840   24843   24855       1   24846   24840   24849   24867       1
   24843   24840   24849   24867       1   24843   24852   24870   24891       1
   24840   24846   24858   24876       1   24840   24846   24861   24879       1
   25050   25038   25044   25053       1   25047   25035   25044   25053       1
   25041   25029   25038   25044       1   25041   25029   25038   25050       1
   25038   25044   25035   25047       1   25035   25044   25038   25050       1
   25029   25038   25044   25053       1   25026   25008   25029   25041       1
   25026   25035   25044   25053       1   25023   25005   25026   25035       1
   25020   25002   25014   25032       1   25017   24996   25014   25032       1
   25011   24993   25008   25026       1   25011   24993   25008   25029       1
   25008   25026   25005   25023       1   25008   25026   25035   25047       1
   25008   25029   25038   25050       1   25005   25026   25035   25047       1
   25002   25014   24996   25017       1   24999   24978   24996   25014       1
   24999   24978   24996   25017       1   24996   25014   25002   25020       1
   24993   25008   25029   25041       1   24990   24972   24993   25011       1
   24987   24969   24990   25005       1   24984   24966   24981   25002       1
   24981   24960   24978   24999       1   24981   25002   25014   25032       1
   24978   24996   25014   25032       1   24975   24957   24972   24990       1
   24975   24957   24972   24993       1   24972   24990   24969   24987       1
   24972   24990   25005   25023       1   24969   24954   24966   24984       1
   24969   24990   25005   25023       1   24966   24954   24969   24987       1
   24966   24981   25002   25020       1   24963   24951   24960   24978       1
   24963   24951   24960   24981       1   24960   24978   24996   25017       1
   24960   24981   24966   24984       1   24960   24981   25002   25020       1
   24957   24948   24951   24963       1   24957   24972   24993   25011       1
   24954   24948   24951   24963       1   24954   24948   24957   24975       1
   24951   24948   24957   24975       1   24951   24960   24978   24999       1
   24948   24954   24966   24984       1   24948   24954   24969   24987       1
   25158   25146   25152   25161       1   25155   25143   25152   25161       1
   25149   25137   25146   25152       1   25149   25137   25146   25158       1
   25146   25152   25143   25155       1   25143   25152   25146   25158       1
   25137   25146   25152   25161       1   25134   25116   25137   25149       1
   25134   25143   25152   25161       1   25131   25113   25134   25143       1
   25128   25110   25122   25140       1   25125   25104   25122   25140       1
   25119   25101   25116   25134       1   25119   25101   25116   25137       1
   25116   25134   25113   25131       1   25116   25134   25143   25155       1
   25116   25137   25146   25158       1   25113   25134   25143   25155       1
   25110   25122   25104   25125       1   25107   25086   25104   25122       1
   25107   25086   25104   25125       1   25104   25122   25110   25128       1
   25101   25116   25137   25149       1   25098   25080   25101   25119       1
   25095   25077   25098   25113       1   25092   25074   25089   25110       1
   25089   25068   25086   25107       1   25089   25110   25122   25140       1
   25086   25104   25122   25140       1   25083   25065   25080   25098       1
   25083   25065   25080   25101       1   25080   25098   25077   25095       1
   25080   25098   25113   25131       1   25077   25062   25074   25092       1
   25077   25098   25113   25131       1   25074   25062   25077   25095       1
   25074   25089   25110   25128       1   25071   25059   25068   25086       1
   25071   25059   25068   25089       1   25068   25086   25104   25125       1
   25068   25089   25074   25092       1   25068   25089   25110   25128       1
   25065   25056   25059   25071       1   25065   25080   25101   25119       1
   25062   25056   25059   25071       1   25062   25056   25065   25083       1
   25059   25056   25065   25083       1   25059   25068   25086   25107       1
   25056   25062   25074   25092       1   25056   25062   25077   25095       1
   25266   25254   25260   25269       1   25263   25251   25260   25269       1
   25257   25245   25254   25260       1   25257   25245   25254   25266       1
   25254   25260   25251   25263       1   25251   25260   25254   25266       1
   25245   25254   25260   25269       1   25242   25224   25245   25257       1
   25242   25251   25260   25269       1   25239   25221   25242   25251       1
   25236   25218   25230   25248       1   25233   25212   25230   25248       1
   25227   25209   25224   25242       1   25227   25209   25224   25245       1
   25224   25242   25221   25239       1   25224   25242   25251   25263       1
   25224   25245   25254   25266       1   25221   25242   25251   25263       1
   25218   25230   25212   25233       1   25215   25194   25212   25230       1
   25215   25194   25212   25233       1   25212   25230   25218   25236       1
   25209   25224   25245   25257       1   25206   25188   25209   25227       1
   25203   25185   25206   25221       1   25200   25182   25197   25218       1
   25197   25176   25194   25215       1   25197   25218   25230   25248       1
   25194   25212   25230   25248       1   25191   25173   25188   25206       1
   25191   25173   25188   25209       1   25188   25206   25185   25203       1
   25188   25206   25221   25239       1   25185   25170   25182   25200       1
   25185   25206   25221   25239       1   25182   25170   25185   25203       1
   25182   25197   25218   25236       1   25179   25167   25176   25194       1
   25179   25167   25176   25197       1   25176   25194   25212   25233       1
   25176   25197   25182   25200       1   25176   25197   25218   25236       1
   25173   25164   25167   25179       1   25173   25188   25209   25227       1
   25170   25164   25167   25179       1   25170   25164   25173   25191       1
   25167   25164   25173   25191       1   25167   25176   25194   25215       1
   25164   25170   25182   25200       1   25164   25170   25185   25203       1
   25374   25362   25368   25377       1   25371   25359   25368   25377       1
   25365   25353   25362   25368       1   25365   25353   25362   25374       1
   25362   25368   25359   25371       1   25359   25368   25362   25374       1
   25353   25362   25368   25377       1   25350   25332   25353   25365       1
   25350   25359   25368   25377       1   25347   25329   25350   25359       1
   25344   25326   25338   25356       1   25341   25320   25338   25356       1
   25335   25317   25332   25350       1   25335   25317   25332   25353       1
   25332   25350   25329   25347       1   25332   25350   25359   25371       1
   25332   25353   25362   25374       1   25329   25350   25359   25371       1
   25326   25338   25320   25341       1   25323   25302   25320   25338       1
   25323   25302   25320   25341       1   25320   25338   25326   25344       1
   25317   25332   25353   25365       1   25314   25296   25317   25335       1
   25311   25293   25314   25329       1   25308   25290   25305   25326       1
   25305   25284   25302   25323       1   25305   25326   25338   25356       1
   25302   25320   25338   25356       1   25299   25281   25296   25314       1
   25299   25281   25296   25317       1   25296   25314   25293   25311       1
   25296   25314   25329   25347       1   25293   25278   25290   25308       1
   25293   25314   25329   25347       1   25290   25278   25293   25311       1
   25290   25305   25326   25344       1   25287   25275   25284   25302       1
   25287   25275   25284   25305       1   25284   25302   25320   25341       1
   25284   25305   25290   25308       1   25284   25305   25326   25344       1
   25281   25272   25275   25287       1   25281   25296   25317   25335       1
   25278   25272   25275   25287       1   25278   25272   25281   25299       1
   25275   25272   25281   25299       1   25275   25284   25302   25323       1
   25272   25278   25290   25308       1   25272   25278   25293   25311       1
   25482   25470   25476   25485       1   25479   25467   25476   25485       1
   25473   25461   25470   25476       1   25473   25461   25470   25482       1
   25470   25476   25467   25479       1   25467   25476   25470   25482       1
   25461   25470   25476   25485       1   25458   25440   25461   25473       1
   25458   25467   25476   25485       1   25455   25437   25458   25467       1
   25452   25434   25446   25464       1   25449   25428   25446   25464       1
   25443   25425   25440   25458       1   25443   25425   25440   25461       1
   25440   25458   25437   25455       1   25440   25458   25467   25479       1
   25440   25461   25470   25482       1   25437   25458   25467   25479       1
   25434   25446   25428   25449       1   25431   25410   25428   25446       1
   25431   25410   25428   25449       1   25428   25446   25434   25452       1
   25425   25440   25461   25473       1   25422   25404   25425   25443       1
   25419   25401   25422   25437       1   25416   25398   25413   25434       1
   25413   25392   25410   25431       1   25413   25434   25446   25464       1
   25410   25428   25446   25464       1   25407   25389   25404   25422       1
   25407   25389   25404   25425       1   25404   25422   25401   25419       1
   25404   25422   25437   25455       1   25401   25386   25398   25416       1
   25401   25422   25437   25455       1   25398   25386   25401   25419       1
   25398   25413   25434   25452       1   25395   25383   25392   25410       1
   25395   25383   25392   25413       1   25392   25410   25428   25449       1
   25392   25413   25398   25416       1   25392   25413   25434   25452       1
   25389   25380   25383   25395       1   25389   25404   25425   25443       1
   25386   25380   25383   25395       1   25386   25380   25389   25407       1
   25383   25380   25389   25407       1   25383   25392   25410   25431       1
   25380   25386   25398   25416       1   25380   25386   25401   25419       1
   25590   25578   25584   25593       1   25587   25575   25584   25593       1
   25581   25569   25578   25584       1   25581   25569   25578   25590       1
   25578   25584   25575   25587       1   25575   25584   25578   25590       1
   25569   25578   25584   25593       1   25566   25548   25569   25581       1
   25566   25575   25584   25593       1   25563   25545   25566   25575       1
   25560   25542   25554   25572       1   25557   25536   25554   25572       1
   25551   25533   25548   25566       1   25551   25533   25548   25569       1
   25548   25566   25545   25563       1   25548   25566   25575   25587       1
   25548   25569   25578   25590       1   25545   25566   25575   25587       1
   25542   25554   25536   25557       1   25539   25518   25536   25554       1
   25539   25518   25536   25557       1   25536   25554   25542   25560       1
   25533   25548   25569   25581       1   25530   25512   25533   25551       1
   25527   25509   25530   25545       1   25524   25506   25521   25542       1
   25521   25500   25518   25539       1   25521   25542   25554   25572       1
   25518   25536   25554   25572       1   25515   25497   25512   25530       1
   25515   25497   25512   25533       1   25512   25530   25509   25527       1
   25512   25530   25545   25563       1   25509   25494   25506   25524       1
   25509   25530   25545   25563       1   25506   25494   25509   25527       1
   25506   25521   25542   25560       1   25503   25491   25500   25518       1
   25503   25491   25500   25521       1   25500   25518   25536   25557       1
   25500   25521   25506   25524       1   25500   25521   25542   25560       1
   25497   25488   25491   25503       1   25497   25512   25533   25551       1
   25494   25488   25491   25503       1   25494   25488   25497   25515       1
   25491   25488   25497   25515       1   25491   25500   25518   25539       1
   25488   25494   25506   25524       1   25488   25494   25509   25527       1
   25698   25686   25692   25701       1   25695   25683   25692   25701       1
   25689   25677   25686   25692       1   25689   25677   25686   25698       1
   25686   25692   25683   25695       1   25683   25692   25686   25698       1
   25677   25686   25692   25701       1   25674   25656   25677   25689       1
   25674   25683   25692   25701       1   25671   25653   25674   25683       1
   25668   25650   25662   25680       1   25665   25644   25662   25680       1
   25659   25641   25656   25674       1   25659   25641   25656   25677       1
   25656   25674   25653   25671       1   25656   25674   25683   25695       1
   25656   25677   25686   25698       1   25653   25674   25683   25695       1
   25650   25662   25644   25665       1   25647   25626   25644   25662       1
   25647   25626   25644   25665       1   25644   25662   25650   25668       1
   25641   25656   25677   25689       1   25638   25620   25641   25659       1
   25635   25617   25638   25653       1   25632   25614   25629   25650       1
   25629   25608   25626   25647       1   25629   25650   25662   25680       1
   25626   25644   25662   25680       1   25623   25605   25620   25638       1
   25623   25605   25620   25641       1   25620   25638   25617   25635       1
   25620   25638   25653   25671       1   25617   25602   25614   25632       1
   25617   25638   25653   25671       1   25614   25602   25617   25635       1
   25614   25629   25650   25668       1   25611   25599   25608   25626       1
   25611   25599   25608   25629       1   25608   25626   25644   25665       1
   25608   25629   25614   25632       1   25608   25629   25650   25668       1
   25605   25596   25599   25611       1   25605   25620   25641   25659       1
   25602   25596   25599   25611       1   25602   25596   25605   25623       1
   25599   25596   25605   25623       1   25599   25608   25626   25647       1
   25596   25602   25614   25632       1   25596   25602   25617   25635       1
   25806   25794   25800   25809       1   25803   25791   25800   25809       1
   25797   25785   25794   25800       1   25797   25785   25794   25806       1
   25794   25800   25791   25803       1   25791   25800   25794   25806       1
   25785   25794   25800   25809       1   25782   25764   25785   25797       1
   25782   25791   25800   25809       1   25779   25761   25782   25791       1
   25776   25758   25770   25788       1   25773   25752   25770   25788       1
   25767   25749   25764   25782       1   25767   25749   25764   25785       1
   25764   25782   25761   25779       1   25764   25782   25791   25803       1
   25764   25785   25794   25806       1   25761   25782   25791   25803       1
   25758   25770   25752   25773       1   25755   25734   25752   25770       1
   25755   25734   25752   25773       1   25752   25770   25758   25776       1
   25749   25764   25785   25797       1   25746   25728   25749   25767       1
   25743   25725   25746   25761       1   25740   25722   25737   25758       1
   25737   25716   25734   25755       1   25737   25758   25770   25788       1
   25734   25752   25770   25788       1   25731   25713   25728   25746       1
   25731   25713   25728   25749       1   25728   25746   25725   25743       1
   25728   25746   25761   25779       1   25725   25710   25722   25740       1
   25725   25746   25761   25779       1   25722   25710   25725   25743       1
   25722   25737   25758   25776       1   25719   25707   25716   25734       1
   25719   25707   25716   25737       1   25716   25734   25752   25773       1
   25716   25737   25722   25740       1   25716   25737   25758   25776       1
   25713   25704   25707   25719       1   25713   25728   25749   25767       1
   25710   25704   25707   25719       1   25710   25704   25713   25731       1
   25707   25704   25713   25731       1   25707   25716   25734   25755       1
   25704   25710   25722   25740       1   25704   25710   25725   25743       1
   25914   25902   25908   25917       1   25911   25899   25908   25917       1
   25905   25893   25902   25908       1   25905   25893   25902   25914       1
   25902   25908   25899   25911       1   25899   25908   25902   25914       1
   25893   25902   25908   25917       1   25890   25872   25893   25905       1
   25890   25899   25908   25917       1   25887   25869   25890   25899       1
   25884   25866   25878   25896       1   25881   25860   25878   25896       1
   25875   25857   25872   25890       1   25875   25857   25872   25893       1
   25872   25890   25869   25887       1   25872   25890   25899   25911       1
   25872   25893   25902   25914       1   25869   25890   25899   25911       1
   25866   25878   25860   25881       1   25863   25842   25860   25878       1
   25863   25842   25860   25881       1   25860   25878   25866   25884       1
   25857   25872   25893   25905       1   25854   25836   25857   25875       1
   25851   25833   25854   25869       1   25848   25830   25845   25866       1
   25845   25824   25842   25863       1   25845   25866   25878   25896       1
   25842   25860   25878   25896       1   25839   25821   25836   25854       1
   25839   25821   25836   25857       1   25836   25854   25833   25851       1
   25836   25854   25869   25887       1   25833   25818   25830   25848       1
   25833   25854   25869   25887       1   25830   25818   25833   25851       1
   25830   25845   25866   25884       1   25827   25815   25824   25842       1
   25827   25815   25824   25845       1   25824   25842   25860   25881       1
   25824   25845   25830   25848       1   25824   25845   25866   25884       1
   25821   25812   25815   25827       1   25821   25836   25857   25875       1
   25818   25812   25815   25827       1   25818   25812   25821   25839       1
   25815   25812   25821   25839       1   25815   25824   25842   25863       1
   25812   25818   25830   25848       1   25812   25818   25833   25851       1
   26022   26010   26016   26025       1   26019   26007   26016   26025       1
   26013   26001   26010   26016       1   26013   26001   26010   26022       1
   26010   26016   26007   26019       1   26007   26016   26010   26022       1
   26001   26010   26016   26025       1   25998   25980   26001   26013       1
   25998   26007   26016   26025       1   25995   25977   25998   26007       1
   25992   25974   25986   26004       1   25989   25968   25986   26004       1
   25983   25965   25980   25998       1   25983   25965   25980   26001       1
   25980   25998   25977   25995       1   25980   25998   26007   26019       1
   25980   26001   26010   26022       1   25977   25998   26007   26019       1
   25974   25986   25968   25989       1   25971   25950   25968   25986       1
   25971   25950   25968   25989       1   25968   25986   25974   25992       1
   25965   25980   26001   26013       1   25962   25944   25965   25983       1
   25959   25941   25962   25977       1   25956   25938   25953   25974       1
   25953   25932   25950   25971       1   25953   25974   25986   26004       1
   25950   25968   25986   26004       1   25947   25929   25944   25962       1
   25947   25929   25944   25965       1   25944   25962   25941   25959       1
   25944   25962   25977   25995       1   25941   25926   25938   25956       1
   25941   25962   25977   25995       1   25938   25926   25941   25959       1
   25938   25953   25974   25992       1   25935   25923   25932   25950       1
   25935   25923   25932   25953       1   25932   25950   25968   25989       1
   25932   25953   25938   25956       1   25932   25953   25974   25992       1
   25929   25920   25923   25935       1   25929   25944   25965   25983       1
   25926   25920   25923   25935       1   25926   25920   25929   25947       1
   25923   25920   25929   25947       1   25923   25932   25950   25971       1
   25920   25926   25938   25956       1   25920   25926   25941   25959       1
   26130   26118   26124   26133       1   26127   26115   26124   26133       1
   26121   26109   26118   26124       1   26121   26109   26118   26130       1
   26118   26124   26115   26127       1   26115   26124   26118   26130       1
   26109   26118   26124   26133       1   26106   26088   26109   26121       1
   26106   26115   26124   26133       1   26103   26085   26106   26115       1
   26100   26082   26094   26112       1   26097   26076   26094   26112       1
   26091   26073   26088   26106       1   26091   26073   26088   26109       1
   26088   26106   26085   26103       1   26088   26106   26115   26127       1
   26088   26109   26118   26130       1   26085   26106   26115   26127       1
   26082   26094   26076   26097       1   26079   26058   26076   26094       1
   26079   26058   26076   26097       1   26076   26094   26082   26100       1
   26073   26088   26109   26121       1   26070   26052   26073   26091       1
   26067   26049   26070   26085       1   26064   26046   26061   26082       1
   26061   26040   26058   26079       1   26061   26082   26094   26112       1
   26058   26076   26094   26112       1   26055   26037   26052   26070       1
   26055   26037   26052   26073       1   26052   26070   26049   26067       1
   26052   26070   26085   26103       1   26049   26034   26046   26064       1
   26049   26070   26085   26103       1   26046   26034   26049   26067       1
   26046   26061   26082   26100       1   26043   26031   26040   26058       1
   26043   26031   26040   26061       1   26040   26058   26076   26097       1
   26040   26061   26046   26064       1   26040   26061   26082   26100       1
   26037   26028   26031   26043       1   26037   26052   26073   26091       1
   26034   26028   26031   26043       1   26034   26028   26037   26055       1
   26031   26028   26037   26055       1   26031   26040   26058   26079       1
   26028   26034   26046   26064       1   26028   26034   26049   26067       1
   26238   26226   26232   26241       1   26235   26223   26232   26241       1
   26229   26217   26226   26232       1   26229   26217   26226   26238       1
   26226   26232   26223   26235       1   26223   26232   26226   26238       1
   26217   26226   26232   26241       1   26214   26196   26217   26229       1
   26214   26223   26232   26241       1   26211   26193   26214   26223       1
   26208   26190   26202   26220       1   26205   26184   26202   26220       1
   26199   26181   26196   26214       1   26199   26181   26196   26217       1
   26196   26214   26193   26211       1   26196   26214   26223   26235       1
   26196   26217   26226   26238       1   26193   26214   26223   26235       1
   26190   26202   26184   26205       1   26187   26166   26184   26202       1
   26187   26166   26184   26205       1   26184   26202   26190   26208       1
   26181   26196   26217   26229       1   26178   26160   26181   26199       1
   26175   26157   26178   26193       1   26172   26154   26169   26190       1
   26169   26148   26166   26187       1   26169   26190   26202   26220       1
   26166   26184   26202   26220       1   26163   26145   26160   26178       1
   26163   26145   26160   26181       1   26160   26178   26157   26175       1
   26160   26178   26193   26211       1   26157   26142   26154   26172       1
   26157   26178   26193   26211       1   26154   26142   26157   26175       1
   26154   26169   26190   26208       1   26151   26139   26148   26166       1
   26151   26139   26148   26169       1   26148   26166   26184   26205       1
   26148   26169   26154   26172       1   26148   26169   26190   26208       1
   26145   26136   26139   26151       1   26145   26160   26181   26199       1
   26142   26136   26139   26151       1   26142   26136   26145   26163       1
   26139   26136   26145   26163       1   26139   26148   26166   26187       1
   26136   26142   26154   26172       1   26136   26142   26157   26175       1
   26346   26334   26340   26349       1   26343   26331   26340   26349       1
   26337   26325   26334   26340       1   26337   26325   26334   26346       1
   26334   26340   26331   26343       1   26331   26340   26334   26346       1
   26325   26334   26340   26349       1   26322   26304   26325   26337       1
   26322   26331   26340   26349       1   26319   26301   26322   26331       1
   26316   26298   26310   26328       1   26313   26292   26310   26328       1
   26307   26289   26304   26322       1   26307   26289   26304   26325       1
   26304   26322   26301   26319       1   26304   26322   26331   26343       1
   26304   26325   26334   26346       1   26301   26322   26331   26343       1
   26298   26310   26292   26313       1   26295   26274   26292   26310       1
   26295   26274   26292   26313       1   26292   26310   26298   26316       1
   26289   26304   26325   26337       1   26286   26268   26289   26307       1
   26283   26265   26286   26301       1   26280   26262   26277   26298       1
   26277   26256   26274   26295       1   26277   26298   26310   26328       1
   26274   26292   26310   26328       1   26271   26253   26268   26286       1
   26271   26253   26268   26289       1   26268   26286   26265   26283       1
   26268   26286   26301   26319       1   26265   26250   26262   26280       1
   26265   26286   26301   26319       1   26262   26250   26265   26283       1
   26262   26277   26298   26316       1   26259   26247   26256   26274       1
   26259   26247   26256   26277       1   26256   26274   26292   26313       1
   26256   26277   26262   26280       1   26256   26277   26298   26316       1
   26253   26244   26247   26259       1   26253   26268   26289   26307       1
   26250   26244   26247   26259       1   26250   26244   26253   26271       1
   26247   26244   26253   26271       1   26247   26256   26274   26295       1
   26244   26250   26262   26280       1   26244   26250   26265   26283       1
   26454   26442   26448   26457       1   26451   26439   26448   26457       1
   26445   26433   26442   26448       1   26445   26433   26442   26454       1
   26442   26448   26439   26451       1   26439   26448   26442   26454       1
   26433   26442   26448   26457       1   26430   26412   26433   26445       1
   26430   26439   26448   26457       1   26427   26409   26430   26439       1
   26424   26406   26418   26436       1   26421   26400   26418   26436       1
   26415   26397   26412   26430       1   26415   26397   26412   26433       1
   26412   26430   26409   26427       1   26412   26430   26439   26451       1
   26412   26433   26442   26454       1   26409   26430   26439   26451       1
   26406   26418   26400   26421       1   26403   26382   26400   26418       1
   26403   26382   26400   26421       1   26400   26418   26406   26424       1
   26397   26412   26433   26445       1   26394   26376   26397   26415       1
   26391   26373   26394   26409       1   26388   26370   26385   26406       1
   26385   26364   26382   26403       1   26385   26406   26418   26436       1
   26382   26400   26418   26436       1   26379   26361   26376   26394       1
   26379   26361   26376   26397       1   26376   26394   26373   26391       1
   26376   26394   26409   26427       1   26373   26358   26370   26388       1
   26373   26394   26409   26427       1   26370   26358   26373   26391       1
   26370   26385   26406   26424       1   26367   26355   26364   26382       1
   26367   26355   26364   26385       1   26364   26382   26400   26421       1
   26364   26385   26370   26388       1   26364   26385   26406   26424       1
   26361   26352   26355   26367       1   26361   26376   26397   26415       1
   26358   26352   26355   26367       1   26358   26352   26361   26379       1
   26355   26352   26361   26379       1   26355   26364   26382   26403       1
   26352   26358   26370   26388       1   26352   26358   26373   26391       1
   26562   26550   26556   26565       1   26559   26547   26556   26565       1
   26553   26541   26550   26556       1   26553   26541   26550   26562       1
   26550   26556   26547   26559       1   26547   26556   26550   26562       1
   26541   26550   26556   26565       1   26538   26520   26541   26553       1
   26538   26547   26556   26565       1   26535   26517   26538   26547       1
   26532   26514   26526   26544       1   26529   26508   26526   26544       1
   26523   26505   26520   26538       1   26523   26505   26520   26541       1
   26520   26538   26517   26535       1   26520   26538   26547   26559       1
   26520   26541   26550   26562       1   26517   26538   26547   26559       1
   26514   26526   26508   26529       1   26511   26490   26508   26526       1
   26511   26490   26508   26529       1   26508   26526   26514   26532       1
   26505   26520   26541   26553       1   26502   26484   26505   26523       1
   26499   26481   26502   26517       1   26496   26478   26493   26514       1
   26493   26472   26490   26511       1   26493   26514   26526   26544       1
   26490   26508   26526   26544       1   26487   26469   26484   26502       1
   26487   26469   26484   26505       1   26484   26502   26481   26499       1
   26484   26502   26517   26535       1   26481   26466   26478   26496       1
   26481   26502   26517   26535       1   26478   26466   26481   26499       1
   26478   26493   26514   26532       1   26475   26463   26472   26490       1
   26475   26463   26472   26493       1   26472   26490   26508   26529       1
   26472   26493   26478   26496       1   26472   26493   26514   26532       1
   26469   26460   26463   26475       1   26469   26484   26505   26523       1
   26466   26460   26463   26475       1   26466   26460   26469   26487       1
   26463   26460   26469   26487       1   26463   26472   26490   26511       1
   26460   26466   26478   26496       1   26460   26466   26481   26499       1
   26670   26658   26664   26673       1   26667   26655   26664   26673       1
   26661   26649   26658   26664       1   26661   26649   26658   26670       1
   26658   26664   26655   26667       1   26655   26664   26658   26670       1
   26649   26658   26664   26673       1   26646   26628   26649   26661       1
   26646   26655   26664   26673       1   26643   26625   26646   26655       1
   26640   26622   26634   26652       1   26637   26616   26634   26652       1
   26631   26613   26628   26646       1   26631   26613   26628   26649       1
   26628   26646   26625   26643       1   26628   26646   26655   26667       1
   26628   26649   26658   26670       1   26625   26646   26655   26667       1
   26622   26634   26616   26637       1   26619   26598   26616   26634       1
   26619   26598   26616   26637       1   26616   26634   26622   26640       1
   26613   26628   26649   26661       1   26610   26592   26613   26631       1
   26607   26589   26610   26625       1   26604   26586   26601   26622       1
   26601   26580   26598   26619       1   26601   26622   26634   26652       1
   26598   26616   26634   26652       1   26595   26577   26592   26610       1
   26595   26577   26592   26613       1   26592   26610   26589   26607       1
   26592   26610   26625   26643       1   26589   26574   26586   26604       1
   26589   26610   26625   26643       1   26586   26574   26589   26607       1
   26586   26601   26622   26640       1   26583   26571   26580   26598       1
   26583   26571   26580   26601       1   26580   26598   26616   26637       1
   26580   26601   26586   26604       1   26580   26601   26622   26640       1
   26577   26568   26571   26583       1   26577   26592   26613   26631       1
   26574   26568   26571   26583       1   26574   26568   26577   26595       1
   26571   26568   26577   26595       1   26571   26580   26598   26619       1
   26568   26574   26586   26604       1   26568   26574   26589   26607       1
   26778   26766   26772   26781       1   26775   26763   26772   26781       1
   26769   26757   26766   26772       1   26769   26757   26766   26778       1
   26766   26772   26763   26775       1   26763   26772   26766   26778       1
   26757   26766   26772   26781       1   26754   26736   26757   26769       1
   26754   26763   26772   26781       1   26751   26733   26754   26763       1
   26748   26730   26742   26760       1   26745   26724   26742   26760       1
   26739   26721   26736   26754       1   26739   26721   26736   26757       1
   26736   26754   26733   26751       1   26736   26754   26763   26775       1
   26736   26757   26766   26778       1   26733   26754   26763   26775       1
   26730   26742   26724   26745       1   26727   26706   26724   26742       1
   26727   26706   26724   26745       1   26724   26742   26730   26748       1
   26721   26736   26757   26769       1   26718   26700   26721   26739       1
   26715   26697   26718   26733       1   26712   26694   26709   26730       1
   26709   26688   26706   26727       1   26709   26730   26742   26760       1
   26706   26724   26742   26760       1   26703   26685   26700   26718       1
   26703   26685   26700   26721       1   26700   26718   26697   26715       1
   26700   26718   26733   26751       1   26697   26682   26694   26712       1
   26697   26718   26733   26751       1   26694   26682   26697   26715       1
   26694   26709   26730   26748       1   26691   26679   26688   26706       1
   26691   26679   26688   26709       1   26688   26706   26724   26745       1
   26688   26709   26694   26712       1   26688   26709   26730   26748       1
   26685   26676   26679   26691       1   26685   26700   26721   26739       1
   26682   26676   26679   26691       1   26682   26676   26685   26703       1
   26679   26676   26685   26703       1   26679   26688   26706   26727       1
   26676   26682   26694   26712       1   26676   26682   26697   26715       1
   26886   26874   26880   26889       1   26883   26871   26880   26889       1
   26877   26865   26874   26880       1   26877   26865   26874   26886       1
   26874   26880   26871   26883       1   26871   26880   26874   26886       1
   26865   26874   26880   26889       1   26862   26844   26865   26877       1
   26862   26871   26880   26889       1   26859   26841   26862   26871       1
   26856   26838   26850   26868       1   26853   26832   26850   26868       1
   26847   26829   26844   26862       1   26847   26829   26844   26865       1
   26844   26862   26841   26859       1   26844   26862   26871   26883       1
   26844   26865   26874   26886       1   26841   26862   26871   26883       1
   26838   26850   26832   26853       1   26835   26814   26832   26850       1
   26835   26814   26832   26853       1   26832   26850   26838   26856       1
   26829   26844   26865   26877       1   26826   26808   26829   26847       1
   26823   26805   26826   26841       1   26820   26802   26817   26838       1
   26817   26796   26814   26835       1   26817   26838   26850   26868       1
   26814   26832   26850   26868       1   26811   26793   26808   26826       1
   26811   26793   26808   26829       1   26808   26826   26805   26823       1
   26808   26826   26841   26859       1   26805   26790   26802   26820       1
   26805   26826   26841   26859       1   26802   26790   26805   26823       1
   26802   26817   26838   26856       1   26799   26787   26796   26814       1
   26799   26787   26796   26817       1   26796   26814   26832   26853       1
   26796   26817   26802   26820       1   26796   26817   26838   26856       1
   26793   26784   26787   26799       1   26793   26808   26829   26847       1
   26790   26784   26787   26799       1   26790   26784   26793   26811       1
   26787   26784   26793   26811       1   26787   26796   26814   26835       1
   26784   26790   26802   26820       1   26784   26790   26805   26823       1
   26994   26982   26988   26997       1   26991   26979   26988   26997       1
   26985   26973   26982   26988       1   26985   26973   26982   26994       1
   26982   26988   26979   26991       1   26979   26988   26982   26994       1
   26973   26982   26988   26997       1   26970   26952   26973   26985       1
   26970   26979   26988   26997       1   26967   26949   26970   26979       1
   26964   26946   26958   26976       1   26961   26940   26958   26976       1
   26955   26937   26952   26970       1   26955   26937   26952   26973       1
   26952   26970   26949   26967       1   26952   26970   26979   26991       1
   26952   26973   26982   26994       1   26949   26970   26979   26991       1
   26946   26958   26940   26961       1   26943   26922   26940   26958       1
   26943   26922   26940   26961       1   26940   26958   26946   26964       1
   26937   26952   26973   26985       1   26934   26916   26937   26955       1
   26931   26913   26934   26949       1   26928   26910   26925   26946       1
   26925   26904   26922   26943       1   26925   26946   26958   26976       1
   26922   26940   26958   26976       1   26919   26901   26916   26934       1
   26919   26901   26916   26937       1   26916   26934   26913   26931       1
   26916   26934   26949   26967       1   26913   26898   26910   26928       1
   26913   26934   26949   26967       1   26910   26898   26913   26931       1
   26910   26925   26946   26964       1   26907   26895   26904   26922       1
   26907   26895   26904   26925       1   26904   26922   26940   26961       1
   26904   26925   26910   26928       1   26904   26925   26946   26964       1
   26901   26892   26895   26907       1   26901   26916   26937   26955       1
   26898   26892   26895   26907       1   26898   26892   26901   26919       1
   26895   26892   26901   26919       1   26895   26904   26922   26943       1
   26892   26898   26910   26928       1   26892   26898   26913   26931       1
      87      90     -96    -105       2      81      96     -90    -102       2
      78      96     -87     -99       2      60      90     -81     -93       2
      48      54     -66     -84       2      42      78     -57     -75       2
      33      66     -54     -72       2      30      66     -48     -69       2
      24      60     -45     -63       2      12      48     -30     -51       2
       6      42     -21     -39       2       6      33     -18     -36       2
       0      24      -9     -27       2       0      12      -3     -15       2
     195     198    -204    -213       2     189     204    -198    -210       2
     186     204    -195    -207       2     168     198    -189    -201       2
     156     162    -174    -192       2     150     186    -165    -183       2
     141     174    -162    -180       2     138     174    -156    -177       2
     132     168    -153    -171       2     120     156    -138    -159       2
     114     150    -129    -147       2     114     141    -126    -144       2
     108     132    -117    -135       2     108     120    -111    -123       2
     303     306    -312    -321       2     297     312    -306    -318       2
     294     312    -303    -315       2     276     306    -297    -309       2
     264     270    -282    -300       2     258     294    -273    -291       2
     249     282    -270    -288       2     246     282    -264    -285       2
     240     276    -261    -279       2     228     264    -246    -267       2
     222     258    -237    -255       2     222     249    -234    -252       2
     216     240    -225    -243       2     216     228    -219    -231       2
     411     414    -420    -429       2     405     420    -414    -426       2
     402     420    -411    -423       2     384     414    -405    -417       2
     372     378    -390    -408       2     366     402    -381    -399       2
     357     390    -378    -396       2     354     390    -372    -393       2
     348     384    -369    -387       2     336     372    -354    -375       2
     330     366    -345    -363       2     330     357    -342    -360       2
     324     348    -333    -351       2     324     336    -327    -339       2
     519     522    -528    -537       2     513     528    -522    -534       2
     510     528    -519    -531       2     492     522    -513    -525       2
     480     486    -498    -516       2     474     510    -489    -507       2
     465     498    -486    -504       2     462     498    -480    -501       2
     456     492    -477    -495       2     444     480    -462    -483       2
     438     474    -453    -471       2     438     465    -450    -468       2
     432     456    -441    -459       2     432     444    -435    -447       2
     627     630    -636    -645       2     621     636    -630    -642       2
     618     636    -627    -639       2     600     630    -621    -633       2
     588     594    -606    -624       2     582     618    -597    -615       2
     573     606    -594    -612       2     570     606    -588    -609       2
     564     600    -585    -603       2     552     588    -570    -591       2
     546     582    -561    -579       2     546     573    -558    -576       2
     540     564    -549    -567       2     540     552    -543    -555       2
     735     738    -744    -753       2     729     744    -738    -750       2
     726     744    -735    -747       2     708     738    -729    -741       2
     696     702    -714    -732       2     690     726    -705    -723       2
     681     714    -702    -720       2     678     714    -696    -717       2
     672     708    -693    -711       2     660     696    -678    -699       2
     654     690    -669    -687       2     654     681    -666    -684       2
     648     672    -657    -675       2     648     660    -651    -663       2
     843     846    -852    -861       2     837     852    -846    -858       2
     834     852    -843    -855       2     816     846    -837    -849       2
     804     810    -822    -840       2     798     834    -813    -831       2
     789     822    -810    -828       2     786     822    -804    -825       2
     780     816    -801    -819       2     768     804    -786    -807       2
     762     798    -777    -795       2     762     789    -774    -792       2
     756     780    -765    -783       2     756     768    -759    -771       2
     951     954    -960    -969       2     945     960    -954    -966       2
     942     960    -951    -963       2     924     954    -945    -957       2
     912     918    -930    -948       2     906     942    -921    -939       2
     897     930    -918    -936       2     894     930    -912    -933       2
     888     924    -909    -927       2     876     912    -894    -915       2
     870     906    -885    -903       2     870     897    -882    -900       2
     864     888    -873    -891       2     864     876    -867    -879       2
    1059    1062   -1068   -1077       2    1053    1068   -1062   -1074       2
    1050    1068   -1059   -1071       2    1032    1062   -1053   -1065       2
    1020    1026   -1038   -1056       2    1014    1050   -1029   -1047       2
    1005    1038   -1026   -1044       2    1002    1038   -1020   -1041       2
     996    1032   -1017   -1035       2     984    1020   -1002   -1023       2
     978    1014    -993   -1011       2     978    1005    -990   -1008       2
     972     996    -981    -999       2     972     984    -975    -987       2
    1167    1170   -1176   -1185       2    1161    1176   -1170   -1182       2
    1158    1176   -1167   -1179       2    1140    1170   -1161   -1173       2
    1128    1134   -1146   -1164       2    1122    1158   -1137   -1155       2
    1113    1146   -1134   -1152       2    1110    1146   -1128   -1149       2
    1104    1140   -1125   -1143       2    1092    1128   -1110   -1131       2
    1086    1122   -1101   -1119       2    1086    1113   -1098   -1116       2
    1080    1104   -1089   -1107       2    1080    1092   -1083   -1095       2
    1275    1278   -1284   -1293       2    1269    1284   -1278   -1290       2
    1266    1284   -1275   -1287       2    1248    1278   -1269   -1281       2
    1236    1242   -1254   -1272       2    1230    1266   -1245   -1263       2
    1221    1254   -1242   -1260       2    1218    1254   -1236   -1257       2
    1212    1248   -1233   -1251       2    1200    1236   -1218   -1239       2
    1194    1230   -1209   -1227       2    1194    1221   -1206   -1224       2
    1188    1212   -1197   -1215       2    1188    1200   -1191   -1203       2
    1383    1386   -1392   -1401       2    1377    1392   -1386   -1398       2
    1374    1392   -1383   -1395       2    1356    1386   -1377   -1389       2
    1344    1350   -1362   -1380       2    1338    1374   -1353   -1371       2
    1329    1362   -1350   -1368       2    1326    1362   -1344   -1365       2
    1320    1356   -1341   -1359       2    1308    1344   -1326   -1347       2
    1302    1338   -1317   -1335       2    1302    1329   -1314   -1332       2
    1296    1320   -1305   -1323       2    1296    1308   -1299   -1311       2
    1491    1494   -1500   -1509       2    1485    1500   -1494   -1506       2
    1482    1500   -1491   -1503       2    1464    1494   -1485   -1497       2
    1452    1458   -1470   -1488       2    1446    1482   -1461   -1479       2
    1437    1470   -1458   -1476       2    1434    1470   -1452   -1473       2
    1428    1464   -1449   -1467       2    1416    1452   -1434   -1455       2
    1410    1446   -1425   -1443       2    1410    1437   -1422   -1440       2
    1404    1428   -1413   -1431       2    1404    1416   -1407   -1419       2
    1599    1602   -1608   -1617       2    1593    1608   -1602   -1614       2
    1590    1608   -1599   -1611       2    1572    1602   -1593   -1605       2
    1560    1566   -1578   -1596       2    1554    1590   -1569   -1587       2
    1545    1578   -1566   -1584       2    1542    1578   -1560   -1581       2
    1536    1572   -1557   -1575       2    1524    1560   -1542   -1563       2
    1518    1554   -1533   -1551       2    1518    1545   -1530   -1548       2
    1512    1536   -1521   -1539       2    1512    1524   -1515   -1527       2
    1707    1710   -1716   -1725       2    1701    1716   -1710   -1722       2
    1698    1716   -1707   -1719       2    1680    1710   -1701   -1713       2
    1668    1674   -1686   -1704       2    1662    1698   -1677   -1695       2
    1653    1686   -1674   -1692       2    1650    1686   -1668   -1689       2
    1644    1680   -1665   -1683       2    1632    1668   -1650   -1671       2
    1626    1662   -1641   -1659       2    1626    1653   -1638   -1656       2
    1620    1644   -1629   -1647       2    1620    1632   -1623   -1635       2
    1815    1818   -1824   -1833       2    1809    1824   -1818   -1830       2
    1806    1824   -1815   -1827       2    1788    1818   -1809   -1821       2
    1776    1782   -1794   -1812       2    1770    1806   -1785   -1803       2
    1761    1794   -1782   -1800       2    1758    1794   -1776   -1797       2
    1752    1788   -1773   -1791       2    1740    1776   -1758   -1779       2
    1734    1770   -1749   -1767       2    1734    1761   -1746   -1764       2
    1728    1752   -1737   -1755       2    1728    1740   -1731   -1743       2
    1923    1926   -1932   -1941       2    1917    1932   -1926   -1938       2
    1914    1932   -1923   -1935       2    1896    1926   -1917   -1929       2
    1884    1890   -1902   -1920       2    1878    1914   -1893   -1911       2
    1869    1902   -1890   -1908       2    1866    1902   -1884   -1905       2
    1860    1896   -1881   -1899       2    1848    1884   -1866   -1887       2
    1842    1878   -1857   -1875       2    1842    1869   -1854   -1872       2
    1836    1860   -1845   -1863       2    1836    1848   -1839   -1851       2
    2031    2034   -2040   -2049       2    2025    2040   -2034   -2046       2
    2022    2040   -2031   -2043       2    2004    2034   -2025   -2037       2
    1992    1998   -2010   -2028       2    1986    2022   -2001   -2019       2
    1977    2010   -1998   -2016       2    1974    2010   -1992   -2013       2
    1968    2004   -1989   -2007       2    1956    1992   -1974   -1995       2
    1950    1986   -1965   -1983       2    1950    1977   -1962   -1980       2
    1944    1968   -1953   -1971       2    1944    1956   -1947   -1959       2
    2139    2142   -2148   -2157       2    2133    2148   -2142   -2154       2
    2130    2148   -2139   -2151       2    2112    2142   -2133   -2145       2
    2100    2106   -2118   -2136       2    2094    2130   -2109   -2127       2
    2085    2118   -2106   -2124       2    2082    2118   -2100   -2121       2
    2076    2112   -2097   -2115       2    2064    2100   -2082   -2103       2
    2058    2094   -2073   -2091       2    2058    2085   -2070   -2088       2
    2052    2076   -2061   -2079       2    2052    2064   -2055   -2067       2
    2247    2250   -2256   -2265       2    2241    2256   -2250   -2262       2
    2238    2256   -2247   -2259       2    2220    2250   -2241   -2253       2
    2208    2214   -2226   -2244       2    2202    2238   -2217   -2235       2
    2193    2226   -2214   -2232       2    2190    2226   -2208   -2229       2
    2184    2220   -2205   -2223       2    2172    2208   -2190   -2211       2
    2166    2202   -2181   -2199       2    2166    2193   -2178   -2196       2
    2160    2184   -2169   -2187       2    2160    2172   -2163   -2175       2
    2355    2358   -2364   -2373       2    2349    2364   -2358   -2370       2
    2346    2364   -2355   -2367       2    2328    2358   -2349   -2361       2
    2316    2322   -2334   -2352       2    2310    2346   -2325   -2343       2
    2301    2334   -2322   -2340       2    2298    2334   -2316   -2337       2
    2292    2328   -2313   -2331       2    2280    2316   -2298   -2319       2
    2274    2310   -2289   -2307       2    2274    2301   -2286   -2304       2
    2268    2292   -2277   -2295       2    2268    2280   -2271   -2283       2
    2463    2466   -2472   -2481       2    2457    2472   -2466   -2478       2
    2454    2472   -2463   -2475       2    2436    2466   -2457   -2469       2
    2424    2430   -2442   -2460       2    2418    2454   -2433   -2451       2
    2409    2442   -2430   -2448       2    2406    2442   -2424   -2445       2
    2400    2436   -2421   -2439       2    2388    2424   -2406   -2427       2
    2382    2418   -2397   -2415       2    2382    2409   -2394   -2412       2
    2376    2400   -2385   -2403       2    2376    2388   -2379   -2391       2
    2571    2574   -2580   -2589       2    2565    2580   -2574   -2586       2
    2562    2580   -2571   -2583       2    2544    2574   -2565   -2577       2
    2532    2538   -2550   -2568       2    2526    2562   -2541   -2559       2
    2517    2550   -2538   -2556       2    2514    2550   -2532   -2553       2
    2508    2544   -2529   -2547       2    2496    2532   -2514   -2535       2
    2490    2526   -2505   -2523       2    2490    2517   -2502   -2520       2
    2484    2508   -2493   -2511       2    2484    2496   -2487   -2499       2
    2679    2682   -2688   -2697       2    2673    2688   -2682   -2694       2
    2670    2688   -2679   -2691       2    2652    2682   -2673   -2685       2
    2640    2646   -2658   -2676       2    2634    2670   -2649   -2667       2
    2625    2658   -2646   -2664       2    2622    2658   -2640   -2661       2
    2616    2652   -2637   -2655       2    2604    2640   -2622   -2643       2
    2598    2634   -2613   -2631       2    2598    2625   -2610   -2628       2
    2592    2616   -2601   -2619       2    2592    2604   -2595   -2607       2
    2787    2790   -2796   -2805       2    2781    2796   -2790   -2802       2
    2778    2796   -2787   -2799       2    2760    2790   -2781   -2793       2
    2748    2754   -2766   -2784       2    2742    2778   -2757   -2775       2
    2733    2766   -2754   -2772       2    2730    2766   -2748   -2769       2
    2724    2760   -2745   -2763       2    2712    2748   -2730   -2751       2
    2706    2742   -2721   -2739       2    2706    2733   -2718   -2736       2
    2700    2724   -2709   -2727       2    2700    2712   -2703   -2715       2
    2895    2898   -2904   -2913       2    2889    2904   -2898   -2910       2
    2886    2904   -2895   -2907       2    2868    2898   -2889   -2901       2
    2856    2862   -2874   -2892       2    2850    2886   -2865   -2883       2
    2841    2874   -2862   -2880       2    2838    2874   -2856   -2877       2
    2832    2868   -2853   -2871       2    2820    2856   -2838   -2859       2
    2814    2850   -2829   -2847       2    2814    2841   -2826   -2844       2
    2808    2832   -2817   -2835       2    2808    2820   -2811   -2823       2
    3003    3006   -3012   -3021       2    2997    3012   -3006   -3018       2
    2994    3012   -3003   -3015       2    2976    3006   -2997   -3009       2
    2964    2970   -2982   -3000       2    2958    2994   -2973   -2991       2
    2949    2982   -2970   -2988       2    2946    2982   -2964   -2985       2
    2940    2976   -2961   -2979       2    2928    2964   -2946   -2967       2
    2922    2958   -2937   -2955       2    2922    2949   -2934   -2952       2
    2916    2940   -2925   -2943       2    2916    2928   -2919   -2931       2
    3111    3114   -3120   -3129       2    3105    3120   -3114   -3126       2
    3102    3120   -3111   -3123       2    3084    3114   -3105   -3117       2
    3072    3078   -3090   -3108       2    3066    3102   -3081   -3099       2
    3057    3090   -3078   -3096       2    3054    3090   -3072   -3093       2
    3048    3084   -3069   -3087       2    3036    3072   -3054   -3075       2
    3030    3066   -3045   -3063       2    3030    3057   -3042   -3060       2
    3024    3048   -3033   -3051       2    3024    3036   -3027   -3039       2
    3219    3222   -3228   -3237       2    3213    3228   -3222   -3234       2
    3210    3228   -3219   -3231       2    3192    3222   -3213   -3225       2
    3180    3186   -3198   -3216       2    3174    3210   -3189   -3207       2
    3165    3198   -3186   -3204       2    3162    3198   -3180   -3201       2
    3156    3192   -3177   -3195       2    3144    3180   -3162   -3183       2
    3138    3174   -3153   -3171       2    3138    3165   -3150   -3168       2
    3132    3156   -3141   -3159       2    3132    3144   -3135   -3147       2
    3327    3330   -3336   -3345       2    3321    3336   -3330   -3342       2
    3318    3336   -3327   -3339       2    3300    3330   -3321   -3333       2
    3288    3294   -3306   -3324       2    3282    3318   -3297   -3315       2
    3273    3306   -3294   -3312       2    3270    3306   -3288   -3309       2
    3264    3300   -3285   -3303       2    3252    3288   -3270   -3291       2
    3246    3282   -3261   -3279       2    3246    3273   -3258   -3276       2
    3240    3264   -3249   -3267       2    3240    3252   -3243   -3255       2
    3435    3438   -3444   -3453       2    3429    3444   -3438   -3450       2
    3426    3444   -3435   -3447       2    3408    3438   -3429   -3441       2
    3396    3402   -3414   -3432       2    3390    3426   -3405   -3423       2
    3381    3414   -3402   -3420       2    3378    3414   -3396   -3417       2
    3372    3408   -3393   -3411       2    3360    3396   -3378   -3399       2
    3354    3390   -3369   -3387       2    3354    3381   -3366   -3384       2
    3348    3372   -3357   -3375       2    3348    3360   -3351   -3363       2
    3543    3546   -3552   -3561       2    3537    3552   -3546   -3558       2
    3534    3552   -3543   -3555       2    3516    3546   -3537   -3549       2
    3504    3510   -3522   -3540       2    3498    3534   -3513   -3531       2
    3489    3522   -3510   -3528       2    3486    3522   -3504   -3525       2
    3480    3516   -3501   -3519       2    3468    3504   -3486   -3507       2
    3462    3498   -3477   -3495       2    3462    3489   -3474   -3492       2
    3456    3480   -3465   -3483       2    3456    3468   -3459   -3471       2
    3651    3654   -3660   -3669       2    3645    3660   -3654   -3666       2
    3642    3660   -3651   -3663       2    3624    3654   -3645   -3657       2
    3612    3618   -3630   -3648       2    3606    3642   -3621   -3639       2
    3597    3630   -3618   -3636       2    3594    3630   -3612   -3633       2
    3588    3624   -3609   -3627       2    3576    3612   -3594   -3615       2
    3570    3606   -3585   -3603       2    3570    3597   -3582   -3600       2
    3564    3588   -3573   -3591       2    3564    3576   -3567   -3579       2
    3759    3762   -3768   -3777       2    3753    3768   -3762   -3774       2
    3750    3768   -3759   -3771       2    3732    3762   -3753   -3765       2
    3720    3726   -3738   -3756       2    3714    3750   -3729   -3747       2
    3705    3738   -3726   -3744       2    3702    3738   -3720   -3741       2
    3696    3732   -3717   -3735       2    3684    3720   -3702   -3723       2
    3678    3714   -3693   -3711       2    3678    3705   -3690   -3708       2
    3672    3696   -3681   -3699       2    3672    3684   -3675   -3687       2
    3867    3870   -3876   -3885       2    3861    3876   -3870   -3882       2
    3858    3876   -3867   -3879       2    3840    3870   -3861   -3873       2
    3828    3834   -3846   -3864       2    3822    3858   -3837   -3855       2
    3813    3846   -3834   -3852       2    3810    3846   -3828   -3849       2
    3804    3840   -3825   -3843       2    3792    3828   -3810   -3831       2
    3786    3822   -3801   -3819       2    3786    3813   -3798   -3816       2
    3780    3804   -3789   -3807       2    3780    3792   -3783   -3795       2
    3975    3978   -3984   -3993       2    3969    3984   -3978   -3990       2
    3966    3984   -3975   -3987       2    3948    3978   -3969   -3981       2
    3936    3942   -3954   -3972       2    3930    3966   -3945   -3963       2
    3921    3954   -3942   -3960       2    3918    3954   -3936   -3957       2
    3912    3948   -3933   -3951       2    3900    3936   -3918   -3939       2
    3894    3930   -3909   -3927       2    3894    3921   -3906   -3924       2
    3888    3912   -3897   -3915       2    3888    3900   -3891   -3903       2
    4083    4086   -4092   -4101       2    4077    4092   -4086   -4098       2
    4074    4092   -4083   -4095       2    4056    4086   -4077   -4089       2
    4044    4050   -4062   -4080       2    4038    4074   -4053   -4071       2
    4029    4062   -4050   -4068       2    4026    4062   -4044   -4065       2
    4020    4056   -4041   -4059       2    4008    4044   -4026   -4047       2
    4002    4038   -4017   -4035       2    4002    4029   -4014   -4032       2
    3996    4020   -4005   -4023       2    3996    4008   -3999   -4011       2
    4191    4194   -4200   -4209       2    4185    4200   -4194   -4206       2
    4182    4200   -4191   -4203       2    4164    4194   -4185   -4197       2
    4152    4158   -4170   -4188       2    4146    4182   -4161   -4179       2
    4137    4170   -4158   -4176       2    4134    4170   -4152   -4173       2
    4128    4164   -4149   -4167       2    4116    4152   -4134   -4155       2
    4110    4146   -4125   -4143       2    4110    4137   -4122   -4140       2
    4104    4128   -4113   -4131       2    4104    4116   -4107   -4119       2
    4299    4302   -4308   -4317       2    4293    4308   -4302   -4314       2
    4290    4308   -4299   -4311       2    4272    4302   -4293   -4305       2
    4260    4266   -4278   -4296       2    4254    4290   -4269   -4287       2
    4245    4278   -4266   -4284       2    4242    4278   -4260   -4281       2
    4236    4272   -4257   -4275       2    4224    4260   -4242   -4263       2
    4218    4254   -4233   -4251       2    4218    4245   -4230   -4248       2
    4212    4236   -4221   -4239       2    4212    4224   -4215   -4227       2
    4407    4410   -4416   -4425       2    4401    4416   -4410   -4422       2
    4398    4416   -4407   -4419       2    4380    4410   -4401   -4413       2
    4368    4374   -4386   -4404       2    4362    4398   -4377   -4395       2
    4353    4386   -4374   -4392       2    4350    4386   -4368   -4389       2
    4344    4380   -4365   -4383       2    4332    4368   -4350   -4371       2
    4326    4362   -4341   -4359       2    4326    4353   -4338   -4356       2
    4320    4344   -4329   -4347       2    4320    4332   -4323   -4335       2
    4515    4518   -4524   -4533       2    4509    4524   -4518   -4530       2
    4506    4524   -4515   -4527       2    4488    4518   -4509   -4521       2
    4476    4482   -4494   -4512       2    4470    4506   -4485   -4503       2
    4461    4494   -4482   -4500       2    4458    4494   -4476   -4497       2
    4452    4488   -4473   -4491       2    4440    4476   -4458   -4479       2
    4434    4470   -4449   -4467       2    4434    4461   -4446   -4464       2
    4428    4452   -4437   -4455       2    4428    4440   -4431   -4443       2
    4623    4626   -4632   -4641       2    4617    4632   -4626   -4638       2
    4614    4632   -4623   -4635       2    4596    4626   -4617   -4629       2
    4584    4590   -4602   -4620       2    4578    4614   -4593   -4611       2
    4569    4602   -4590   -4608       2    4566    4602   -4584   -4605       2
    4560    4596   -4581   -4599       2    4548    4584   -4566   -4587       2
    4542    4578   -4557   -4575       2    4542    4569   -4554   -4572       2
    4536    4560   -4545   -4563       2    4536    4548   -4539   -4551       2
    4731    4734   -4740   -4749       2    4725    4740   -4734   -4746       2
    4722    4740   -4731   -4743       2    4704    4734   -4725   -4737       2
    4692    4698   -4710   -4728       2    4686    4722   -4701   -4719       2
    4677    4710   -4698   -4716       2    4674    4710   -4692   -4713       2
    4668    4704   -4689   -4707       2    4656    4692   -4674   -4695       2
    4650    4686   -4665   -4683       2    4650    4677   -4662   -4680       2
    4644    4668   -4653   -4671       2    4644    4656   -4647   -4659       2
    4839    4842   -4848   -4857       2    4833    4848   -4842   -4854       2
    4830    4848   -4839   -4851       2    4812    4842   -4833   -4845       2
    4800    4806   -4818   -4836       2    4794    4830   -4809   -4827       2
    4785    4818   -4806   -4824       2    4782    4818   -4800   -4821       2
    4776    4812   -4797   -4815       2    4764    4800   -4782   -4803       2
    4758    4794   -4773   -4791       2    4758    4785   -4770   -4788       2
    4752    4776   -4761   -4779       2    4752    4764   -4755   -4767       2
    4947    4950   -4956   -4965       2    4941    4956   -4950   -4962       2
    4938    4956   -4947   -4959       2    4920    4950   -4941   -4953       2
    4908    4914   -4926   -4944       2    4902    4938   -4917   -4935       2
    4893    4926   -4914   -4932       2    4890    4926   -4908   -4929       2
    4884    4920   -4905   -4923       2    4872    4908   -4890   -4911       2
    4866    4902   -4881   -4899       2    4866    4893   -4878   -4896       2
    4860    4884   -4869   -4887       2    4860    4872   -4863   -4875       2
    5055    5058   -5064   -5073       2    5049    5064   -5058   -5070       2
    5046    5064   -5055   -5067       2    5028    5058   -5049   -5061       2
    5016    5022   -5034   -5052       2    5010    5046   -5025   -5043       2
    5001    5034   -5022   -5040       2    4998    5034   -5016   -5037       2
    4992    5028   -5013   -5031       2    4980    5016   -4998   -5019       2
    4974    5010   -4989   -5007       2    4974    5001   -4986   -5004       2
    4968    4992   -4977   -4995       2    4968    4980   -4971   -4983       2
    5163    5166   -5172   -5181       2    5157    5172   -5166   -5178       2
    5154    5172   -5163   -5175       2    5136    5166   -5157   -5169       2
    5124    5130   -5142   -5160       2    5118    5154   -5133   -5151       2
    5109    5142   -5130   -5148       2    5106    5142   -5124   -5145       2
    5100    5136   -5121   -5139       2    5088    5124   -5106   -5127       2
    5082    5118   -5097   -5115       2    5082    5109   -5094   -5112       2
    5076    5100   -5085   -5103       2    5076    5088   -5079   -5091       2
    5271    5274   -5280   -5289       2    5265    5280   -5274   -5286       2
    5262    5280   -5271   -5283       2    5244    5274   -5265   -5277       2
    5232    5238   -5250   -5268       2    5226    5262   -5241   -5259       2
    5217    5250   -5238   -5256       2    5214    5250   -5232   -5253       2
    5208    5244   -5229   -5247       2    5196    5232   -5214   -5235       2
    5190    5226   -5205   -5223       2    5190    5217   -5202   -5220       2
    5184    5208   -5193   -5211       2    5184    5196   -5187   -5199       2
    5379    5382   -5388   -5397       2    5373    5388   -5382   -5394       2
    5370    5388   -5379   -5391       2    5352    5382   -5373   -5385       2
    5340    5346   -5358   -5376       2    5334    5370   -5349   -5367       2
    5325    5358   -5346   -5364       2    5322    5358   -5340   -5361       2
    5316    5352   -5337   -5355       2    5304    5340   -5322   -5343       2
    5298    5334   -5313   -5331       2    5298    5325   -5310   -5328       2
    5292    5316   -5301   -5319       2    5292    5304   -5295   -5307       2
    5487    5490   -5496   -5505       2    5481    5496   -5490   -5502       2
    5478    5496   -5487   -5499       2    5460    5490   -5481   -5493       2
    5448    5454   -5466   -5484       2    5442    5478   -5457   -5475       2
    5433    5466   -5454   -5472       2    5430    5466   -5448   -5469       2
    5424    5460   -5445   -5463       2    5412    5448   -5430   -5451       2
    5406    5442   -5421   -5439       2    5406    5433   -5418   -5436       2
    5400    5424   -5409   -5427       2    5400    5412   -5403   -5415       2
    5595    5598   -5604   -5613       2    5589    5604   -5598   -5610       2
    5586    5604   -5595   -5607       2    5568    5598   -5589   -5601       2
    5556    5562   -5574   -5592       2    5550    5586   -5565   -5583       2
    5541    5574   -5562   -5580       2    5538    5574   -5556   -5577       2
    5532    5568   -5553   -5571       2    5520    5556   -5538   -5559       2
    5514    5550   -5529   -5547       2    5514    5541   -5526   -5544       2
    5508    5532   -5517   -5535       2    5508    5520   -5511   -5523       2
    5703    5706   -5712   -5721       2    5697    5712   -5706   -5718       2
    5694    5712   -5703   -5715       2    5676    5706   -5697   -5709       2
    5664    5670   -5682   -5700       2    5658    5694   -5673   -5691       2
    5649    5682   -5670   -5688       2    5646    5682   -5664   -5685       2
    5640    5676   -5661   -5679       2    5628    5664   -5646   -5667       2
    5622    5658   -5637   -5655       2    5622    5649   -5634   -5652       2
    5616    5640   -5625   -5643       2    5616    5628   -5619   -5631       2
    5811    5814   -5820   -5829       2    5805    5820   -5814   -5826       2
    5802    5820   -5811   -5823       2    5784    5814   -5805   -5817       2
    5772    5778   -5790   -5808       2    5766    5802   -5781   -5799       2
    5757    5790   -5778   -5796       2    5754    5790   -5772   -5793       2
    5748    5784   -5769   -5787       2    5736    5772   -5754   -5775       2
    5730    5766   -5745   -5763       2    5730    5757   -5742   -5760       2
    5724    5748   -5733   -5751       2    5724    5736   -5727   -5739       2
    5919    5922   -5928   -5937       2    5913    5928   -5922   -5934       2
    5910    5928   -5919   -5931       2    5892    5922   -5913   -5925       2
    5880    5886   -5898   -5916       2    5874    5910   -5889   -5907       2
    5865    5898   -5886   -5904       2    5862    5898   -5880   -5901       2
    5856    5892   -5877   -5895       2    5844    5880   -5862   -5883       2
    5838    5874   -5853   -5871       2    5838    5865   -5850   -5868       2
    5832    5856   -5841   -5859       2    5832    5844   -5835   -5847       2
    6027    6030   -6036   -6045       2    6021    6036   -6030   -6042       2
    6018    6036   -6027   -6039       2    6000    6030   -6021   -6033       2
    5988    5994   -6006   -6024       2    5982    6018   -5997   -6015       2
    5973    6006   -5994   -6012       2    5970    6006   -5988   -6009       2
    5964    6000   -5985   -6003       2    5952    5988   -5970   -5991       2
    5946    5982   -5961   -5979       2    5946    5973   -5958   -5976       2
    5940    5964   -5949   -5967       2    5940    5952   -5943   -5955       2
    6135    6138   -6144   -6153       2    6129    6144   -6138   -6150       2
    6126    6144   -6135   -6147       2    6108    6138   -6129   -6141       2
    6096    6102   -6114   -6132       2    6090    6126   -6105   -6123       2
    6081    6114   -6102   -6120       2    6078    6114   -6096   -6117       2
    6072    6108   -6093   -6111       2    6060    6096   -6078   -6099       2
    6054    6090   -6069   -6087       2    6054    6081   -6066   -6084       2
    6048    6072   -6057   -6075       2    6048    6060   -6051   -6063       2
    6243    6246   -6252   -6261       2    6237    6252   -6246   -6258       2
    6234    6252   -6243   -6255       2    6216    6246   -6237   -6249       2
    6204    6210   -6222   -6240       2    6198    6234   -6213   -6231       2
    6189    6222   -6210   -6228       2    6186    6222   -6204   -6225       2
    6180    6216   -6201   -6219       2    6168    6204   -6186   -6207       2
    6162    6198   -6177   -6195       2    6162    6189   -6174   -6192       2
    6156    6180   -6165   -6183       2    6156    6168   -6159   -6171       2
    6351    6354   -6360   -6369       2    6345    6360   -6354   -6366       2
    6342    6360   -6351   -6363       2    6324    6354   -6345   -6357       2
    6312    6318   -6330   -6348       2    6306    6342   -6321   -6339       2
    6297    6330   -6318   -6336       2    6294    6330   -6312   -6333       2
    6288    6324   -6309   -6327       2    6276    6312   -6294   -6315       2
    6270    6306   -6285   -6303       2    6270    6297   -6282   -6300       2
    6264    6288   -6273   -6291       2    6264    6276   -6267   -6279       2
    6459    6462   -6468   -6477       2    6453    6468   -6462   -6474       2
    6450    6468   -6459   -6471       2    6432    6462   -6453   -6465       2
    6420    6426   -6438   -6456       2    6414    6450   -6429   -6447       2
    6405    6438   -6426   -6444       2    6402    6438   -6420   -6441       2
    6396    6432   -6417   -6435       2    6384    6420   -6402   -6423       2
    6378    6414   -6393   -6411       2    6378    6405   -6390   -6408       2
    6372    6396   -6381   -6399       2    6372    6384   -6375   -6387       2
    6567    6570   -6576   -6585       2    6561    6576   -6570   -6582       2
    6558    6576   -6567   -6579       2    6540    6570   -6561   -6573       2
    6528    6534   -6546   -6564       2    6522    6558   -6537   -6555       2
    6513    6546   -6534   -6552       2    6510    6546   -6528   -6549       2
    6504    6540   -6525   -6543       2    6492    6528   -6510   -6531       2
    6486    6522   -6501   -6519       2    6486    6513   -6498   -6516       2
    6480    6504   -6489   -6507       2    6480    6492   -6483   -6495       2
    6675    6678   -6684   -6693       2    6669    6684   -6678   -6690       2
    6666    6684   -6675   -6687       2    6648    6678   -6669   -6681       2
    6636    6642   -6654   -6672       2    6630    6666   -6645   -6663       2
    6621    6654   -6642   -6660       2    6618    6654   -6636   -6657       2
    6612    6648   -6633   -6651       2    6600    6636   -6618   -6639       2
    6594    6630   -6609   -6627       2    6594    6621   -6606   -6624       2
    6588    6612   -6597   -6615       2    6588    6600   -6591   -6603       2
    6783    6786   -6792   -6801       2    6777    6792   -6786   -6798       2
    6774    6792   -6783   -6795       2    6756    6786   -6777   -6789       2
    6744    6750   -6762   -6780       2    6738    6774   -6753   -6771       2
    6729    6762   -6750   -6768       2    6726    6762   -6744   -6765       2
    6720    6756   -6741   -6759       2    6708    6744   -6726   -6747       2
    6702    6738   -6717   -6735       2    6702    6729   -6714   -6732       2
    6696    6720   -6705   -6723       2    6696    6708   -6699   -6711       2
    6891    6894   -6900   -6909       2    6885    6900   -6894   -6906       2
    6882    6900   -6891   -6903       2    6864    6894   -6885   -6897       2
    6852    6858   -6870   -6888       2    6846    6882   -6861   -6879       2
    6837    6870   -6858   -6876       2    6834    6870   -6852   -6873       2
    6828    6864   -6849   -6867       2    6816    6852   -6834   -6855       2
    6810    6846   -6825   -6843       2    6810    6837   -6822   -6840       2
    6804    6828   -6813   -6831       2    6804    6816   -6807   -6819       2
    6999    7002   -7008   -7017       2    6993    7008   -7002   -7014       2
    6990    7008   -6999   -7011       2    6972    7002   -6993   -7005       2
    6960    6966   -6978   -6996       2    6954    6990   -6969   -6987       2
    6945    6978   -6966   -6984       2    6942    6978   -6960   -6981       2
    6936    6972   -6957   -6975       2    6924    6960   -6942   -6963       2
    6918    6954   -6933   -6951       2    6918    6945   -6930   -6948       2
    6912    6936   -6921   -6939       2    6912    6924   -6915   -6927       2
    7107    7110   -7116   -7125       2    7101    7116   -7110   -7122       2
    7098    7116   -7107   -7119       2    7080    7110   -7101   -7113       2
    7068    7074   -7086   -7104       2    7062    7098   -7077   -7095       2
    7053    7086   -7074   -7092       2    7050    7086   -7068   -7089       2
    7044    7080   -7065   -7083       2    7032    7068   -7050   -7071       2
    7026    7062   -7041   -7059       2    7026    7053   -7038   -7056       2
    7020    7044   -7029   -7047       2    7020    7032   -7023   -7035       2
    7215    7218   -7224   -7233       2    7209    7224   -7218   -7230       2
    7206    7224   -7215   -7227       2    7188    7218   -7209   -7221       2
    7176    7182   -7194   -7212       2    7170    7206   -7185   -7203       2
    7161    7194   -7182   -7200       2    7158    7194   -7176   -7197       2
    7152    7188   -7173   -7191       2    7140    7176   -7158   -7179       2
    7134    7170   -7149   -7167       2    7134    7161   -7146   -7164       2
    7128    7152   -7137   -7155       2    7128    7140   -7131   -7143       2
    7323    7326   -7332   -7341       2    7317    7332   -7326   -7338       2
    7314    7332   -7323   -7335       2    7296    7326   -7317   -7329       2
    7284    7290   -7302   -7320       2    7278    7314   -7293   -7311       2
    7269    7302   -7290   -7308       2    7266    7302   -7284   -7305       2
    7260    7296   -7281   -7299       2    7248    7284   -7266   -7287       2
    7242    7278   -7257   -7275       2    7242    7269   -7254   -7272       2
    7236    7260   -7245   -7263       2    7236    7248   -7239   -7251       2
    7431    7434   -7440   -7449       2    7425    7440   -7434   -7446       2
    7422    7440   -7431   -7443       2    7404    7434   -7425   -7437       2
    7392    7398   -7410   -7428       2    7386    7422   -7401   -7419       2
    7377    7410   -7398   -7416       2    7374    7410   -7392   -7413       2
    7368    7404   -7389   -7407       2    7356    7392   -7374   -7395       2
    7350    7386   -7365   -7383       2    7350    7377   -7362   -7380       2
    7344    7368   -7353   -7371       2    7344    7356   -7347   -7359       2
    7539    7542   -7548   -7557       2    7533    7548   -7542   -7554       2
    7530    7548   -7539   -7551       2    7512    7542   -7533   -7545       2
    7500    7506   -7518   -7536       2    7494    7530   -7509   -7527       2
    7485    7518   -7506   -7524       2    7482    7518   -7500   -7521       2
    7476    7512   -7497   -7515       2    7464    7500   -7482   -7503       2
    7458    7494   -7473   -7491       2    7458    7485   -7470   -7488       2
    7452    7476   -7461   -7479       2    7452    7464   -7455   -7467       2
    7647    7650   -7656   -7665       2    7641    7656   -7650   -7662       2
    7638    7656   -7647   -7659       2    7620    7650   -7641   -7653       2
    7608    7614   -7626   -7644       2    7602    7638   -7617   -7635       2
    7593    7626   -7614   -7632       2    7590    7626   -7608   -7629       2
    7584    7620   -7605   -7623       2    7572    7608   -7590   -7611       2
    7566    7602   -7581   -7599       2    7566    7593   -7578   -7596       2
    7560    7584   -7569   -7587       2    7560    7572   -7563   -7575       2
    7755    7758   -7764   -7773       2    7749    7764   -7758   -7770       2
    7746    7764   -7755   -7767       2    7728    7758   -7749   -7761       2
    7716    7722   -7734   -7752       2    7710    7746   -7725   -7743       2
    7701    7734   -7722   -7740       2    7698    7734   -7716   -7737       2
    7692    7728   -7713   -7731       2    7680    7716   -7698   -7719       2
    7674    7710   -7689   -7707       2    7674    7701   -7686   -7704       2
    7668    7692   -7677   -7695       2    7668    7680   -7671   -7683       2
    7863    7866   -7872   -7881       2    7857    7872   -7866   -7878       2
    7854    7872   -7863   -7875       2    7836    7866   -7857   -7869       2
    7824    7830   -7842   -7860       2    7818    7854   -7833   -7851       2
    7809    7842   -7830   -7848       2    7806    7842   -7824   -7845       2
    7800    7836   -7821   -7839       2    7788    7824   -7806   -7827       2
    7782    7818   -7797   -7815       2    7782    7809   -7794   -7812       2
    7776    7800   -7785   -7803       2    7776    7788   -7779   -7791       2
    7971    7974   -7980   -7989       2    7965    7980   -7974   -7986       2
    7962    7980   -7971   -7983       2    7944    7974   -7965   -7977       2
    7932    7938   -7950   -7968       2    7926    7962   -7941   -7959       2
    7917    7950   -7938   -7956       2    7914    7950   -7932   -7953       2
    7908    7944   -7929   -7947       2    7896    7932   -7914   -7935       2
    7890    7926   -7905   -7923       2    7890    7917   -7902   -7920       2
    7884    7908   -7893   -7911       2    7884    7896   -7887   -7899       2
    8079    8082   -8088   -8097       2    8073    8088   -8082   -8094       2
    8070    8088   -8079   -8091       2    8052    8082   -8073   -8085       2
    8040    8046   -8058   -8076       2    8034    8070   -8049   -8067       2
    8025    8058   -8046   -8064       2    8022    8058   -8040   -8061       2
    8016    8052   -8037   -8055       2    8004    8040   -8022   -8043       2
    7998    8034   -8013   -8031       2    7998    8025   -8010   -8028       2
    7992    8016   -8001   -8019       2    7992    8004   -7995   -8007       2
    8187    8190   -8196   -8205       2    8181    8196   -8190   -8202       2
    8178    8196   -8187   -8199       2    8160    8190   -8181   -8193       2
    8148    8154   -8166   -8184       2    8142    8178   -8157   -8175       2
    8133    8166   -8154   -8172       2    8130    8166   -8148   -8169       2
    8124    8160   -8145   -8163       2    8112    8148   -8130   -8151       2
    8106    8142   -8121   -8139       2    8106    8133   -8118   -8136       2
    8100    8124   -8109   -8127       2    8100    8112   -8103   -8115       2
    8295    8298   -8304   -8313       2    8289    8304   -8298   -8310       2
    8286    8304   -8295   -8307       2    8268    8298   -8289   -8301       2
    8256    8262   -8274   -8292       2    8250    8286   -8265   -8283       2
    8241    8274   -8262   -8280       2    8238    8274   -8256   -8277       2
    8232    8268   -8253   -8271       2    8220    8256   -8238   -8259       2
    8214    8250   -8229   -8247       2    8214    8241   -8226   -8244       2
    8208    8232   -8217   -8235       2    8208    8220   -8211   -8223       2
    8403    8406   -8412   -8421       2    8397    8412   -8406   -8418       2
    8394    8412   -8403   -8415       2    8376    8406   -8397   -8409       2
    8364    8370   -8382   -8400       2    8358    8394   -8373   -8391       2
    8349    8382   -8370   -8388       2    8346    8382   -8364   -8385       2
    8340    8376   -8361   -8379       2    8328    8364   -8346   -8367       2
    8322    8358   -8337   -8355       2    8322    8349   -8334   -8352       2
    8316    8340   -8325   -8343       2    8316    8328   -8319   -8331       2
    8511    8514   -8520   -8529       2    8505    8520   -8514   -8526       2
    8502    8520   -8511   -8523       2    8484    8514   -8505   -8517       2
    8472    8478   -8490   -8508       2    8466    8502   -8481   -8499       2
    8457    8490   -8478   -8496       2    8454    8490   -8472   -8493       2
    8448    8484   -8469   -8487       2    8436    8472   -8454   -8475       2
    8430    8466   -8445   -8463       2    8430    8457   -8442   -8460       2
    8424    8448   -8433   -8451       2    8424    8436   -8427   -8439       2
    8619    8622   -8628   -8637       2    8613    8628   -8622   -8634       2
    8610    8628   -8619   -8631       2    8592    8622   -8613   -8625       2
    8580    8586   -8598   -8616       2    8574    8610   -8589   -8607       2
    8565    8598   -8586   -8604       2    8562    8598   -8580   -8601       2
    8556    8592   -8577   -8595       2    8544    8580   -8562   -8583       2
    8538    8574   -8553   -8571       2    8538    8565   -8550   -8568       2
    8532    8556   -8541   -8559       2    8532    8544   -8535   -8547       2
    8727    8730   -8736   -8745       2    8721    8736   -8730   -8742       2
    8718    8736   -8727   -8739       2    8700    8730   -8721   -8733       2
    8688    8694   -8706   -8724       2    8682    8718   -8697   -8715       2
    8673    8706   -8694   -8712       2    8670    8706   -8688   -8709       2
    8664    8700   -8685   -8703       2    8652    8688   -8670   -8691       2
    8646    8682   -8661   -8679       2    8646    8673   -8658   -8676       2
    8640    8664   -8649   -8667       2    8640    8652   -8643   -8655       2
    8835    8838   -8844   -8853       2    8829    8844   -8838   -8850       2
    8826    8844   -8835   -8847       2    8808    8838   -8829   -8841       2
    8796    8802   -8814   -8832       2    8790    8826   -8805   -8823       2
    8781    8814   -8802   -8820       2    8778    8814   -8796   -8817       2
    8772    8808   -8793   -8811       2    8760    8796   -8778   -8799       2
    8754    8790   -8769   -8787       2    8754    8781   -8766   -8784       2
    8748    8772   -8757   -8775       2    8748    8760   -8751   -8763       2
    8943    8946   -8952   -8961       2    8937    8952   -8946   -8958       2
    8934    8952   -8943   -8955       2    8916    8946   -8937   -8949       2
    8904    8910   -8922   -8940       2    8898    8934   -8913   -8931       2
    8889    8922   -8910   -8928       2    8886    8922   -8904   -8925       2
    8880    8916   -8901   -8919       2    8868    8904   -8886   -8907       2
    8862    8898   -8877   -8895       2    8862    8889   -8874   -8892       2
    8856    8880   -8865   -8883       2    8856    8868   -8859   -8871       2
    9051    9054   -9060   -9069       2    9045    9060   -9054   -9066       2
    9042    9060   -9051   -9063       2    9024    9054   -9045   -9057       2
    9012    9018   -9030   -9048       2    9006    9042   -9021   -9039       2
    8997    9030   -9018   -9036       2    8994    9030   -9012   -9033       2
    8988    9024   -9009   -9027       2    8976    9012   -8994   -9015       2
    8970    9006   -8985   -9003       2    8970    8997   -8982   -9000       2
    8964    8988   -8973   -8991       2    8964    8976   -8967   -8979       2
    9159    9162   -9168   -9177       2    9153    9168   -9162   -9174       2
    9150    9168   -9159   -9171       2    9132    9162   -9153   -9165       2
    9120    9126   -9138   -9156       2    9114    9150   -9129   -9147       2
    9105    9138   -9126   -9144       2    9102    9138   -9120   -9141       2
    9096    9132   -9117   -9135       2    9084    9120   -9102   -9123       2
    9078    9114   -9093   -9111       2    9078    9105   -9090   -9108       2
    9072    9096   -9081   -9099       2    9072    9084   -9075   -9087       2
    9267    9270   -9276   -9285       2    9261    9276   -9270   -9282       2
    9258    9276   -9267   -9279       2    9240    9270   -9261   -9273       2
    9228    9234   -9246   -9264       2    9222    9258   -9237   -9255       2
    9213    9246   -9234   -9252       2    9210    9246   -9228   -9249       2
    9204    9240   -9225   -9243       2    9192    9228   -9210   -9231       2
    9186    9222   -9201   -9219       2    9186    9213   -9198   -9216       2
    9180    9204   -9189   -9207       2    9180    9192   -9183   -9195       2
    9375    9378   -9384   -9393       2    9369    9384   -9378   -9390       2
    9366    9384   -9375   -9387       2    9348    9378   -9369   -9381       2
    9336    9342   -9354   -9372       2    9330    9366   -9345   -9363       2
    9321    9354   -9342   -9360       2    9318    9354   -9336   -9357       2
    9312    9348   -9333   -9351       2    9300    9336   -9318   -9339       2
    9294    9330   -9309   -9327       2    9294    9321   -9306   -9324       2
    9288    9312   -9297   -9315       2    9288    9300   -9291   -9303       2
    9483    9486   -9492   -9501       2    9477    9492   -9486   -9498       2
    9474    9492   -9483   -9495       2    9456    9486   -9477   -9489       2
    9444    9450   -9462   -9480       2    9438    9474   -9453   -9471       2
    9429    9462   -9450   -9468       2    9426    9462   -9444   -9465       2
    9420    9456   -9441   -9459       2    9408    9444   -9426   -9447       2
    9402    9438   -9417   -9435       2    9402    9429   -9414   -9432       2
    9396    9420   -9405   -9423       2    9396    9408   -9399   -9411       2
    9591    9594   -9600   -9609       2    9585    9600   -9594   -9606       2
    9582    9600   -9591   -9603       2    9564    9594   -9585   -9597       2
    9552    9558   -9570   -9588       2    9546    9582   -9561   -9579       2
    9537    9570   -9558   -9576       2    9534    9570   -9552   -9573       2
    9528    9564   -9549   -9567       2    9516    9552   -9534   -9555       2
    9510    9546   -9525   -9543       2    9510    9537   -9522   -9540       2
    9504    9528   -9513   -9531       2    9504    9516   -9507   -9519       2
    9699    9702   -9708   -9717       2    9693    9708   -9702   -9714       2
    9690    9708   -9699   -9711       2    9672    9702   -9693   -9705       2
    9660    9666   -9678   -9696       2    9654    9690   -9669   -9687       2
    9645    9678   -9666   -9684       2    9642    9678   -9660   -9681       2
    9636    9672   -9657   -9675       2    9624    9660   -9642   -9663       2
    9618    9654   -9633   -9651       2    9618    9645   -9630   -9648       2
    9612    9636   -9621   -9639       2    9612    9624   -9615   -9627       2
    9807    9810   -9816   -9825       2    9801    9816   -9810   -9822       2
    9798    9816   -9807   -9819       2    9780    9810   -9801   -9813       2
    9768    9774   -9786   -9804       2    9762    9798   -9777   -9795       2
    9753    9786   -9774   -9792       2    9750    9786   -9768   -9789       2
    9744    9780   -9765   -9783       2    9732    9768   -9750   -9771       2
    9726    9762   -9741   -9759       2    9726    9753   -9738   -9756       2
    9720    9744   -9729   -9747       2    9720    9732   -9723   -9735       2
    9915    9918   -9924   -9933       2    9909    9924   -9918   -9930       2
    9906    9924   -9915   -9927       2    9888    9918   -9909   -9921       2
    9876    9882   -9894   -9912       2    9870    9906   -9885   -9903       2
    9861    9894   -9882   -9900       2    9858    9894   -9876   -9897       2
    9852    9888   -9873   -9891       2    9840    9876   -9858   -9879       2
    9834    9870   -9849   -9867       2    9834    9861   -9846   -9864       2
    9828    9852   -9837   -9855       2    9828    9840   -9831   -9843       2
   10023   10026  -10032  -10041       2   10017   10032  -10026  -10038       2
   10014   10032  -10023  -10035       2    9996   10026  -10017  -10029       2
    9984    9990  -10002  -10020       2    9978   10014   -9993  -10011       2
    9969   10002   -9990  -10008       2    9966   10002   -9984  -10005       2
    9960    9996   -9981   -9999       2    9948    9984   -9966   -9987       2
    9942    9978   -9957   -9975       2    9942    9969   -9954   -9972       2
    9936    9960   -9945   -9963       2    9936    9948   -9939   -9951       2
   10131   10134  -10140  -10149       2   10125   10140  -10134  -10146       2
   10122   10140  -10131  -10143       2   10104   10134  -10125  -10137       2
   10092   10098  -10110  -10128       2   10086   10122  -10101  -10119       2
   10077   10110  -10098  -10116       2   10074   10110  -10092  -10113       2
   10068   10104  -10089  -10107       2   10056   10092  -10074  -10095       2
   10050   10086  -10065  -10083       2   10050   10077  -10062  -10080       2
   10044   10068  -10053  -10071       2   10044   10056  -10047  -10059       2
   10239   10242  -10248  -10257       2   10233   10248  -10242  -10254       2
   10230   10248  -10239  -10251       2   10212   10242  -10233  -10245       2
   10200   10206  -10218  -10236       2   10194   10230  -10209  -10227       2
   10185   10218  -10206  -10224       2   10182   10218  -10200  -10221       2
   10176   10212  -10197  -10215       2   10164   10200  -10182  -10203       2
   10158   10194  -10173  -10191       2   10158   10185  -10170  -10188       2
   10152   10176  -10161  -10179       2   10152   10164  -10155  -10167       2
   10347   10350  -10356  -10365       2   10341   10356  -10350  -10362       2
   10338   10356  -10347  -10359       2   10320   10350  -10341  -10353       2
   10308   10314  -10326  -10344       2   10302   10338  -10317  -10335       2
   10293   10326  -10314  -10332       2   10290   10326  -10308  -10329       2
   10284   10320  -10305  -10323       2   10272   10308  -10290  -10311       2
   10266   10302  -10281  -10299       2   10266   10293  -10278  -10296       2
   10260   10284  -10269  -10287       2   10260   10272  -10263  -10275       2
   10455   10458  -10464  -10473       2   10449   10464  -10458  -10470       2
   10446   10464  -10455  -10467       2   10428   10458  -10449  -10461       2
   10416   10422  -10434  -10452       2   10410   10446  -10425  -10443       2
   10401   10434  -10422  -10440       2   10398   10434  -10416  -10437       2
   10392   10428  -10413  -10431       2   10380   10416  -10398  -10419       2
   10374   10410  -10389  -10407       2   10374   10401  -10386  -10404       2
   10368   10392  -10377  -10395       2   10368   10380  -10371  -10383       2
   10563   10566  -10572  -10581       2   10557   10572  -10566  -10578       2
   10554   10572  -10563  -10575       2   10536   10566  -10557  -10569       2
   10524   10530  -10542  -10560       2   10518   10554  -10533  -10551       2
   10509   10542  -10530  -10548       2   10506   10542  -10524  -10545       2
   10500   10536  -10521  -10539       2   10488   10524  -10506  -10527       2
   10482   10518  -10497  -10515       2   10482   10509  -10494  -10512       2
   10476   10500  -10485  -10503       2   10476   10488  -10479  -10491       2
   10671   10674  -10680  -10689       2   10665   10680  -10674  -10686       2
   10662   10680  -10671  -10683       2   10644   10674  -10665  -10677       2
   10632   10638  -10650  -10668       2   10626   10662  -10641  -10659       2
   10617   10650  -10638  -10656       2   10614   10650  -10632  -10653       2
   10608   10644  -10629  -10647       2   10596   10632  -10614  -10635       2
   10590   10626  -10605  -10623       2   10590   10617  -10602  -10620       2
   10584   10608  -10593  -10611       2   10584   10596  -10587  -10599       2
   10779   10782  -10788  -10797       2   10773   10788  -10782  -10794       2
   10770   10788  -10779  -10791       2   10752   10782  -10773  -10785       2
   10740   10746  -10758  -10776       2   10734   10770  -10749  -10767       2
   10725   10758  -10746  -10764       2   10722   10758  -10740  -10761       2
   10716   10752  -10737  -10755       2   10704   10740  -10722  -10743       2
   10698   10734  -10713  -10731       2   10698   10725  -10710  -10728       2
   10692   10716  -10701  -10719       2   10692   10704  -10695  -10707       2
   10887   10890  -10896  -10905       2   10881   10896  -10890  -10902       2
   10878   10896  -10887  -10899       2   10860   10890  -10881  -10893       2
   10848   10854  -10866  -10884       2   10842   10878  -10857  -10875       2
   10833   10866  -10854  -10872       2   10830   10866  -10848  -10869       2
   10824   10860  -10845  -10863       2   10812   10848  -10830  -10851       2
   10806   10842  -10821  -10839       2   10806   10833  -10818  -10836       2
   10800   10824  -10809  -10827       2   10800   10812  -10803  -10815       2
   10995   10998  -11004  -11013       2   10989   11004  -10998  -11010       2
   10986   11004  -10995  -11007       2   10968   10998  -10989  -11001       2
   10956   10962  -10974  -10992       2   10950   10986  -10965  -10983       2
   10941   10974  -10962  -10980       2   10938   10974  -10956  -10977       2
   10932   10968  -10953  -10971       2   10920   10956  -10938  -10959       2
   10914   10950  -10929  -10947       2   10914   10941  -10926  -10944       2
   10908   10932  -10917  -10935       2   10908   10920  -10911  -10923       2
   11103   11106  -11112  -11121       2   11097   11112  -11106  -11118       2
   11094   11112  -11103  -11115       2   11076   11106  -11097  -11109       2
   11064   11070  -11082  -11100       2   11058   11094  -11073  -11091       2
   11049   11082  -11070  -11088       2   11046   11082  -11064  -11085       2
   11040   11076  -11061  -11079       2   11028   11064  -11046  -11067       2
   11022   11058  -11037  -11055       2   11022   11049  -11034  -11052       2
   11016   11040  -11025  -11043       2   11016   11028  -11019  -11031       2
   11211   11214  -11220  -11229       2   11205   11220  -11214  -11226       2
   11202   11220  -11211  -11223       2   11184   11214  -11205  -11217       2
   11172   11178  -11190  -11208       2   11166   11202  -11181  -11199       2
   11157   11190  -11178  -11196       2   11154   11190  -11172  -11193       2
   11148   11184  -11169  -11187       2   11136   11172  -11154  -11175       2
   11130   11166  -11145  -11163       2   11130   11157  -11142  -11160       2
   11124   11148  -11133  -11151       2   11124   11136  -11127  -11139       2
   11319   11322  -11328  -11337       2   11313   11328  -11322  -11334       2
   11310   11328  -11319  -11331       2   11292   11322  -11313  -11325       2
   11280   11286  -11298  -11316       2   11274   11310  -11289  -11307       2
   11265   11298  -11286  -11304       2   11262   11298  -11280  -11301       2
   11256   11292  -11277  -11295       2   11244   11280  -11262  -11283       2
   11238   11274  -11253  -11271       2   11238   11265  -11250  -11268       2
   11232   11256  -11241  -11259       2   11232   11244  -11235  -11247       2
   11427   11430  -11436  -11445       2   11421   11436  -11430  -11442       2
   11418   11436  -11427  -11439       2   11400   11430  -11421  -11433       2
   11388   11394  -11406  -11424       2   11382   11418  -11397  -11415       2
   11373   11406  -11394  -11412       2   11370   11406  -11388  -11409       2
   11364   11400  -11385  -11403       2   11352   11388  -11370  -11391       2
   11346   11382  -11361  -11379       2   11346   11373  -11358  -11376       2
   11340   11364  -11349  -11367       2   11340   11352  -11343  -11355       2
   11535   11538  -11544  -11553       2   11529   11544  -11538  -11550       2
   11526   11544  -11535  -11547       2   11508   11538  -11529  -11541       2
   11496   11502  -11514  -11532       2   11490   11526  -11505  -11523       2
   11481   11514  -11502  -11520       2   11478   11514  -11496  -11517       2
   11472   11508  -11493  -11511       2   11460   11496  -11478  -11499       2
   11454   11490  -11469  -11487       2   11454   11481  -11466  -11484       2
   11448   11472  -11457  -11475       2   11448   11460  -11451  -11463       2
   11643   11646  -11652  -11661       2   11637   11652  -11646  -11658       2
   11634   11652  -11643  -11655       2   11616   11646  -11637  -11649       2
   11604   11610  -11622  -11640       2   11598   11634  -11613  -11631       2
   11589   11622  -11610  -11628       2   11586   11622  -11604  -11625       2
   11580   11616  -11601  -11619       2   11568   11604  -11586  -11607       2
   11562   11598  -11577  -11595       2   11562   11589  -11574  -11592       2
   11556   11580  -11565  -11583       2   11556   11568  -11559  -11571       2
   11751   11754  -11760  -11769       2   11745   11760  -11754  -11766       2
   11742   11760  -11751  -11763       2   11724   11754  -11745  -11757       2
   11712   11718  -11730  -11748       2   11706   11742  -11721  -11739       2
   11697   11730  -11718  -11736       2   11694   11730  -11712  -11733       2
   11688   11724  -11709  -11727       2   11676   11712  -11694  -11715       2
   11670   11706  -11685  -11703       2   11670   11697  -11682  -11700       2
   11664   11688  -11673  -11691       2   11664   11676  -11667  -11679       2
   11859   11862  -11868  -11877       2   11853   11868  -11862  -11874       2
   11850   11868  -11859  -11871       2   11832   11862  -11853  -11865       2
   11820   11826  -11838  -11856       2   11814   11850  -11829  -11847       2
   11805   11838  -11826  -11844       2   11802   11838  -11820  -11841       2
   11796   11832  -11817  -11835       2   11784   11820  -11802  -11823       2
   11778   11814  -11793  -11811       2   11778   11805  -11790  -11808       2
   11772   11796  -11781  -11799       2   11772   11784  -11775  -11787       2
   11967   11970  -11976  -11985       2   11961   11976  -11970  -11982       2
   11958   11976  -11967  -11979       2   11940   11970  -11961  -11973       2
   11928   11934  -11946  -11964       2   11922   11958  -11937  -11955       2
   11913   11946  -11934  -11952       2   11910   11946  -11928  -11949       2
   11904   11940  -11925  -11943       2   11892   11928  -11910  -11931       2
   11886   11922  -11901  -11919       2   11886   11913  -11898  -11916       2
   11880   11904  -11889  -11907       2   11880   11892  -11883  -11895       2
   12075   12078  -12084  -12093       2   12069   12084  -12078  -12090       2
   12066   12084  -12075  -12087       2   12048   12078  -12069  -12081       2
   12036   12042  -12054  -12072       2   12030   12066  -12045  -12063       2
   12021   12054  -12042  -12060       2   12018   12054  -12036  -12057       2
   12012   12048  -12033  -12051       2   12000   12036  -12018  -12039       2
   11994   12030  -12009  -12027       2   11994   12021  -12006  -12024       2
   11988   12012  -11997  -12015       2   11988   12000  -11991  -12003       2
   12183   12186  -12192  -12201       2   12177   12192  -12186  -12198       2
   12174   12192  -12183  -12195       2   12156   12186  -12177  -12189       2
   12144   12150  -12162  -12180       2   12138   12174  -12153  -12171       2
   12129   12162  -12150  -12168       2   12126   12162  -12144  -12165       2
   12120   12156  -12141  -12159       2   12108   12144  -12126  -12147       2
   12102   12138  -12117  -12135       2   12102   12129  -12114  -12132       2
   12096   12120  -12105  -12123       2   12096   12108  -12099  -12111       2
   12291   12294  -12300  -12309       2   12285   12300  -12294  -12306       2
   12282   12300  -12291  -12303       2   12264   12294  -12285  -12297       2
   12252   12258  -12270  -12288       2   12246   12282  -12261  -12279       2
   12237   12270  -12258  -12276       2   12234   12270  -12252  -12273       2
   12228   12264  -12249  -12267       2   12216   12252  -12234  -12255       2
   12210   12246  -12225  -12243       2   12210   12237  -12222  -12240       2
   12204   12228  -12213  -12231       2   12204   12216  -12207  -12219       2
   12399   12402  -12408  -12417       2   12393   12408  -12402  -12414       2
   12390   12408  -12399  -12411       2   12372   12402  -12393  -12405       2
   12360   12366  -12378  -12396       2   12354   12390  -12369  -12387       2
   12345   12378  -12366  -12384       2   12342   12378  -12360  -12381       2
   12336   12372  -12357  -12375       2   12324   12360  -12342  -12363       2
   12318   12354  -12333  -12351       2   12318   12345  -12330  -12348       2
   12312   12336  -12321  -12339       2   12312   12324  -12315  -12327       2
   12507   12510  -12516  -12525       2   12501   12516  -12510  -12522       2
   12498   12516  -12507  -12519       2   12480   12510  -12501  -12513       2
   12468   12474  -12486  -12504       2   12462   12498  -12477  -12495       2
   12453   12486  -12474  -12492       2   12450   12486  -12468  -12489       2
   12444   12480  -12465  -12483       2   12432   12468  -12450  -12471       2
   12426   12462  -12441  -12459       2   12426   12453  -12438  -12456       2
   12420   12444  -12429  -12447       2   12420   12432  -12423  -12435       2
   12615   12618  -12624  -12633       2   12609   12624  -12618  -12630       2
   12606   12624  -12615  -12627       2   12588   12618  -12609  -12621       2
   12576   12582  -12594  -12612       2   12570   12606  -12585  -12603       2
   12561   12594  -12582  -12600       2   12558   12594  -12576  -12597       2
   12552   12588  -12573  -12591       2   12540   12576  -12558  -12579       2
   12534   12570  -12549  -12567       2   12534   12561  -12546  -12564       2
   12528   12552  -12537  -12555       2   12528   12540  -12531  -12543       2
   12723   12726  -12732  -12741       2   12717   12732  -12726  -12738       2
   12714   12732  -12723  -12735       2   12696   12726  -12717  -12729       2
   12684   12690  -12702  -12720       2   12678   12714  -12693  -12711       2
   12669   12702  -12690  -12708       2   12666   12702  -12684  -12705       2
   12660   12696  -12681  -12699       2   12648   12684  -12666  -12687       2
   12642   12678  -12657  -12675       2   12642   12669  -12654  -12672       2
   12636   12660  -12645  -12663       2   12636   12648  -12639  -12651       2
   12831   12834  -12840  -12849       2   12825   12840  -12834  -12846       2
   12822   12840  -12831  -12843       2   12804   12834  -12825  -12837       2
   12792   12798  -12810  -12828       2   12786   12822  -12801  -12819       2
   12777   12810  -12798  -12816       2   12774   12810  -12792  -12813       2
   12768   12804  -12789  -12807       2   12756   12792  -12774  -12795       2
   12750   12786  -12765  -12783       2   12750   12777  -12762  -12780       2
   12744   12768  -12753  -12771       2   12744   12756  -12747  -12759       2
   12939   12942  -12948  -12957       2   12933   12948  -12942  -12954       2
   12930   12948  -12939  -12951       2   12912   12942  -12933  -12945       2
   12900   12906  -12918  -12936       2   12894   12930  -12909  -12927       2
   12885   12918  -12906  -12924       2   12882   12918  -12900  -12921       2
   12876   12912  -12897  -12915       2   12864   12900  -12882  -12903       2
   12858   12894  -12873  -12891       2   12858   12885  -12870  -12888       2
   12852   12876  -12861  -12879       2   12852   12864  -12855  -12867       2
   13047   13050  -13056  -13065       2   13041   13056  -13050  -13062       2
   13038   13056  -13047  -13059       2   13020   13050  -13041  -13053       2
   13008   13014  -13026  -13044       2   13002   13038  -13017  -13035       2
   12993   13026  -13014  -13032       2   12990   13026  -13008  -13029       2
   12984   13020  -13005  -13023       2   12972   13008  -12990  -13011       2
   12966   13002  -12981  -12999       2   12966   12993  -12978  -12996       2
   12960   12984  -12969  -12987       2   12960   12972  -12963  -12975       2
   13155   13158  -13164  -13173       2   13149   13164  -13158  -13170       2
   13146   13164  -13155  -13167       2   13128   13158  -13149  -13161       2
   13116   13122  -13134  -13152       2   13110   13146  -13125  -13143       2
   13101   13134  -13122  -13140       2   13098   13134  -13116  -13137       2
   13092   13128  -13113  -13131       2   13080   13116  -13098  -13119       2
   13074   13110  -13089  -13107       2   13074   13101  -13086  -13104       2
   13068   13092  -13077  -13095       2   13068   13080  -13071  -13083       2
   13263   13266  -13272  -13281       2   13257   13272  -13266  -13278       2
   13254   13272  -13263  -13275       2   13236   13266  -13257  -13269       2
   13224   13230  -13242  -13260       2   13218   13254  -13233  -13251       2
   13209   13242  -13230  -13248       2   13206   13242  -13224  -13245       2
   13200   13236  -13221  -13239       2   13188   13224  -13206  -13227       2
   13182   13218  -13197  -13215       2   13182   13209  -13194  -13212       2
   13176   13200  -13185  -13203       2   13176   13188  -13179  -13191       2
   13371   13374  -13380  -13389       2   13365   13380  -13374  -13386       2
   13362   13380  -13371  -13383       2   13344   13374  -13365  -13377       2
   13332   13338  -13350  -13368       2   13326   13362  -13341  -13359       2
   13317   13350  -13338  -13356       2   13314   13350  -13332  -13353       2
   13308   13344  -13329  -13347       2   13296   13332  -13314  -13335       2
   13290   13326  -13305  -13323       2   13290   13317  -13302  -13320       2
   13284   13308  -13293  -13311       2   13284   13296  -13287  -13299       2
   13479   13482  -13488  -13497       2   13473   13488  -13482  -13494       2
   13470   13488  -13479  -13491       2   13452   13482  -13473  -13485       2
   13440   13446  -13458  -13476       2   13434   13470  -13449  -13467       2
   13425   13458  -13446  -13464       2   13422   13458  -13440  -13461       2
   13416   13452  -13437  -13455       2   13404   13440  -13422  -13443       2
   13398   13434  -13413  -13431       2   13398   13425  -13410  -13428       2
   13392   13416  -13401  -13419       2   13392   13404  -13395  -13407       2
   13587   13590  -13596  -13605       2   13581   13596  -13590  -13602       2
   13578   13596  -13587  -13599       2   13560   13590  -13581  -13593       2
   13548   13554  -13566  -13584       2   13542   13578  -13557  -13575       2
   13533   13566  -13554  -13572       2   13530   13566  -13548  -13569       2
   13524   13560  -13545  -13563       2   13512   13548  -13530  -13551       2
   13506   13542  -13521  -13539       2   13506   13533  -13518  -13536       2
   13500   13524  -13509  -13527       2   13500   13512  -13503  -13515       2
   13695   13698  -13704  -13713       2   13689   13704  -13698  -13710       2
   13686   13704  -13695  -13707       2   13668   13698  -13689  -13701       2
   13656   13662  -13674  -13692       2   13650   13686  -13665  -13683       2
   13641   13674  -13662  -13680       2   13638   13674  -13656  -13677       2
   13632   13668  -13653  -13671       2   13620   13656  -13638  -13659       2
   13614   13650  -13629  -13647       2   13614   13641  -13626  -13644       2
   13608   13632  -13617  -13635       2   13608   13620  -13611  -13623       2
   13803   13806  -13812  -13821       2   13797   13812  -13806  -13818       2
   13794   13812  -13803  -13815       2   13776   13806  -13797  -13809       2
   13764   13770  -13782  -13800       2   13758   13794  -13773  -13791       2
   13749   13782  -13770  -13788       2   13746   13782  -13764  -13785       2
   13740   13776  -13761  -13779       2   13728   13764  -13746  -13767       2
   13722   13758  -13737  -13755       2   13722   13749  -13734  -13752       2
   13716   13740  -13725  -13743       2   13716   13728  -13719  -13731       2
   13911   13914  -13920  -13929       2   13905   13920  -13914  -13926       2
   13902   13920  -13911  -13923       2   13884   13914  -13905  -13917       2
   13872   13878  -13890  -13908       2   13866   13902  -13881  -13899       2
   13857   13890  -13878  -13896       2   13854   13890  -13872  -13893       2
   13848   13884  -13869  -13887       2   13836   13872  -13854  -13875       2
   13830   13866  -13845  -13863       2   13830   13857  -13842  -13860       2
   13824   13848  -13833  -13851       2   13824   13836  -13827  -13839       2
   14019   14022  -14028  -14037       2   14013   14028  -14022  -14034       2
   14010   14028  -14019  -14031       2   13992   14022  -14013  -14025       2
   13980   13986  -13998  -14016       2   13974   14010  -13989  -14007       2
   13965   13998  -13986  -14004       2   13962   13998  -13980  -14001       2
   13956   13992  -13977  -13995       2   13944   13980  -13962  -13983       2
   13938   13974  -13953  -13971       2   13938   13965  -13950  -13968       2
   13932   13956  -13941  -13959       2   13932   13944  -13935  -13947       2
   14127   14130  -14136  -14145       2   14121   14136  -14130  -14142       2
   14118   14136  -14127  -14139       2   14100   14130  -14121  -14133       2
   14088   14094  -14106  -14124       2   14082   14118  -14097  -14115       2
   14073   14106  -14094  -14112       2   14070   14106  -14088  -14109       2
   14064   14100  -14085  -14103       2   14052   14088  -14070  -14091       2
   14046   14082  -14061  -14079       2   14046   14073  -14058  -14076       2
   14040   14064  -14049  -14067       2   14040   14052  -14043  -14055       2
   14235   14238  -14244  -14253       2   14229   14244  -14238  -14250       2
   14226   14244  -14235  -14247       2   14208   14238  -14229  -14241       2
   14196   14202  -14214  -14232       2   14190   14226  -14205  -14223       2
   14181   14214  -14202  -14220       2   14178   14214  -14196  -14217       2
   14172   14208  -14193  -14211       2   14160   14196  -14178  -14199       2
   14154   14190  -14169  -14187       2   14154   14181  -14166  -14184       2
   14148   14172  -14157  -14175       2   14148   14160  -14151  -14163       2
   14343   14346  -14352  -14361       2   14337   14352  -14346  -14358       2
   14334   14352  -14343  -14355       2   14316   14346  -14337  -14349       2
   14304   14310  -14322  -14340       2   14298   14334  -14313  -14331       2
   14289   14322  -14310  -14328       2   14286   14322  -14304  -14325       2
   14280   14316  -14301  -14319       2   14268   14304  -14286  -14307       2
   14262   14298  -14277  -14295       2   14262   14289  -14274  -14292       2
   14256   14280  -14265  -14283       2   14256   14268  -14259  -14271       2
   14451   14454  -14460  -14469       2   14445   14460  -14454  -14466       2
   14442   14460  -14451  -14463       2   14424   14454  -14445  -14457       2
   14412   14418  -14430  -14448       2   14406   14442  -14421  -14439       2
   14397   14430  -14418  -14436       2   14394   14430  -14412  -14433       2
   14388   14424  -14409  -14427       2   14376   14412  -14394  -14415       2
   14370   14406  -14385  -14403       2   14370   14397  -14382  -14400       2
   14364   14388  -14373  -14391       2   14364   14376  -14367  -14379       2
   14559   14562  -14568  -14577       2   14553   14568  -14562  -14574       2
   14550   14568  -14559  -14571       2   14532   14562  -14553  -14565       2
   14520   14526  -14538  -14556       2   14514   14550  -14529  -14547       2
   14505   14538  -14526  -14544       2   14502   14538  -14520  -14541       2
   14496   14532  -14517  -14535       2   14484   14520  -14502  -14523       2
   14478   14514  -14493  -14511       2   14478   14505  -14490  -14508       2
   14472   14496  -14481  -14499       2   14472   14484  -14475  -14487       2
   14667   14670  -14676  -14685       2   14661   14676  -14670  -14682       2
   14658   14676  -14667  -14679       2   14640   14670  -14661  -14673       2
   14628   14634  -14646  -14664       2   14622   14658  -14637  -14655       2
   14613   14646  -14634  -14652       2   14610   14646  -14628  -14649       2
   14604   14640  -14625  -14643       2   14592   14628  -14610  -14631       2
   14586   14622  -14601  -14619       2   14586   14613  -14598  -14616       2
   14580   14604  -14589  -14607       2   14580   14592  -14583  -14595       2
   14775   14778  -14784  -14793       2   14769   14784  -14778  -14790       2
   14766   14784  -14775  -14787       2   14748   14778  -14769  -14781       2
   14736   14742  -14754  -14772       2   14730   14766  -14745  -14763       2
   14721   14754  -14742  -14760       2   14718   14754  -14736  -14757       2
   14712   14748  -14733  -14751       2   14700   14736  -14718  -14739       2
   14694   14730  -14709  -14727       2   14694   14721  -14706  -14724       2
   14688   14712  -14697  -14715       2   14688   14700  -14691  -14703       2
   14883   14886  -14892  -14901       2   14877   14892  -14886  -14898       2
   14874   14892  -14883  -14895       2   14856   14886  -14877  -14889       2
   14844   14850  -14862  -14880       2   14838   14874  -14853  -14871       2
   14829   14862  -14850  -14868       2   14826   14862  -14844  -14865       2
   14820   14856  -14841  -14859       2   14808   14844  -14826  -14847       2
   14802   14838  -14817  -14835       2   14802   14829  -14814  -14832       2
   14796   14820  -14805  -14823       2   14796   14808  -14799  -14811       2
   14991   14994  -15000  -15009       2   14985   15000  -14994  -15006       2
   14982   15000  -14991  -15003       2   14964   14994  -14985  -14997       2
   14952   14958  -14970  -14988       2   14946   14982  -14961  -14979       2
   14937   14970  -14958  -14976       2   14934   14970  -14952  -14973       2
   14928   14964  -14949  -14967       2   14916   14952  -14934  -14955       2
   14910   14946  -14925  -14943       2   14910   14937  -14922  -14940       2
   14904   14928  -14913  -14931       2   14904   14916  -14907  -14919       2
   15099   15102  -15108  -15117       2   15093   15108  -15102  -15114       2
   15090   15108  -15099  -15111       2   15072   15102  -15093  -15105       2
   15060   15066  -15078  -15096       2   15054   15090  -15069  -15087       2
   15045   15078  -15066  -15084       2   15042   15078  -15060  -15081       2
   15036   15072  -15057  -15075       2   15024   15060  -15042  -15063       2
   15018   15054  -15033  -15051       2   15018   15045  -15030  -15048       2
   15012   15036  -15021  -15039       2   15012   15024  -15015  -15027       2
   15207   15210  -15216  -15225       2   15201   15216  -15210  -15222       2
   15198   15216  -15207  -15219       2   15180   15210  -15201  -15213       2
   15168   15174  -15186  -15204       2   15162   15198  -15177  -15195       2
   15153   15186  -15174  -15192       2   15150   15186  -15168  -15189       2
   15144   15180  -15165  -15183       2   15132   15168  -15150  -15171       2
   15126   15162  -15141  -15159       2   15126   15153  -15138  -15156       2
   15120   15144  -15129  -15147       2   15120   15132  -15123  -15135       2
   15315   15318  -15324  -15333       2   15309   15324  -15318  -15330       2
   15306   15324  -15315  -15327       2   15288   15318  -15309  -15321       2
   15276   15282  -15294  -15312       2   15270   15306  -15285  -15303       2
   15261   15294  -15282  -15300       2   15258   15294  -15276  -15297       2
   15252   15288  -15273  -15291       2   15240   15276  -15258  -15279       2
   15234   15270  -15249  -15267       2   15234   15261  -15246  -15264       2
   15228   15252  -15237  -15255       2   15228   15240  -15231  -15243       2
   15423   15426  -15432  -15441       2   15417   15432  -15426  -15438       2
   15414   15432  -15423  -15435       2   15396   15426  -15417  -15429       2
   15384   15390  -15402  -15420       2   15378   15414  -15393  -15411       2
   15369   15402  -15390  -15408       2   15366   15402  -15384  -15405       2
   15360   15396  -15381  -15399       2   15348   15384  -15366  -15387       2
   15342   15378  -15357  -15375       2   15342   15369  -15354  -15372       2
   15336   15360  -15345  -15363       2   15336   15348  -15339  -15351       2
   15531   15534  -15540  -15549       2   15525   15540  -15534  -15546       2
   15522   15540  -15531  -15543       2   15504   15534  -15525  -15537       2
   15492   15498  -15510  -15528       2   15486   15522  -15501  -15519       2
   15477   15510  -15498  -15516       2   15474   15510  -15492  -15513       2
   15468   15504  -15489  -15507       2   15456   15492  -15474  -15495       2
   15450   15486  -15465  -15483       2   15450   15477  -15462  -15480       2
   15444   15468  -15453  -15471       2   15444   15456  -15447  -15459       2
   15639   15642  -15648  -15657       2   15633   15648  -15642  -15654       2
   15630   15648  -15639  -15651       2   15612   15642  -15633  -15645       2
   15600   15606  -15618  -15636       2   15594   15630  -15609  -15627       2
   15585   15618  -15606  -15624       2   15582   15618  -15600  -15621       2
   15576   15612  -15597  -15615       2   15564   15600  -15582  -15603       2
   15558   15594  -15573  -15591       2   15558   15585  -15570  -15588       2
   15552   15576  -15561  -15579       2   15552   15564  -15555  -15567       2
   15747   15750  -15756  -15765       2   15741   15756  -15750  -15762       2
   15738   15756  -15747  -15759       2   15720   15750  -15741  -15753       2
   15708   15714  -15726  -15744       2   15702   15738  -15717  -15735       2
   15693   15726  -15714  -15732       2   15690   15726  -15708  -15729       2
   15684   15720  -15705  -15723       2   15672   15708  -15690  -15711       2
   15666   15702  -15681  -15699       2   15666   15693  -15678  -15696       2
   15660   15684  -15669  -15687       2   15660   15672  -15663  -15675       2
   15855   15858  -15864  -15873       2   15849   15864  -15858  -15870       2
   15846   15864  -15855  -15867       2   15828   15858  -15849  -15861       2
   15816   15822  -15834  -15852       2   15810   15846  -15825  -15843       2
   15801   15834  -15822  -15840       2   15798   15834  -15816  -15837       2
   15792   15828  -15813  -15831       2   15780   15816  -15798  -15819       2
   15774   15810  -15789  -15807       2   15774   15801  -15786  -15804       2
   15768   15792  -15777  -15795       2   15768   15780  -15771  -15783       2
   15963   15966  -15972  -15981       2   15957   15972  -15966  -15978       2
   15954   15972  -15963  -15975       2   15936   15966  -15957  -15969       2
   15924   15930  -15942  -15960       2   15918   15954  -15933  -15951       2
   15909   15942  -15930  -15948       2   15906   15942  -15924  -15945       2
   15900   15936  -15921  -15939       2   15888   15924  -15906  -15927       2
   15882   15918  -15897  -15915       2   15882   15909  -15894  -15912       2
   15876   15900  -15885  -15903       2   15876   15888  -15879  -15891       2
   16071   16074  -16080  -16089       2   16065   16080  -16074  -16086       2
   16062   16080  -16071  -16083       2   16044   16074  -16065  -16077       2
   16032   16038  -16050  -16068       2   16026   16062  -16041  -16059       2
   16017   16050  -16038  -16056       2   16014   16050  -16032  -16053       2
   16008   16044  -16029  -16047       2   15996   16032  -16014  -16035       2
   15990   16026  -16005  -16023       2   15990   16017  -16002  -16020       2
   15984   16008  -15993  -16011       2   15984   15996  -15987  -15999       2
   16179   16182  -16188  -16197       2   16173   16188  -16182  -16194       2
   16170   16188  -16179  -16191       2   16152   16182  -16173  -16185       2
   16140   16146  -16158  -16176       2   16134   16170  -16149  -16167       2
   16125   16158  -16146  -16164       2   16122   16158  -16140  -16161       2
   16116   16152  -16137  -16155       2   16104   16140  -16122  -16143       2
   16098   16134  -16113  -16131       2   16098   16125  -16110  -16128       2
   16092   16116  -16101  -16119       2   16092   16104  -16095  -16107       2
   16287   16290  -16296  -16305       2   16281   16296  -16290  -16302       2
   16278   16296  -16287  -16299       2   16260   16290  -16281  -16293       2
   16248   16254  -16266  -16284       2   16242   16278  -16257  -16275       2
   16233   16266  -16254  -16272       2   16230   16266  -16248  -16269       2
   16224   16260  -16245  -16263       2   16212   16248  -16230  -16251       2
   16206   16242  -16221  -16239       2   16206   16233  -16218  -16236       2
   16200   16224  -16209  -16227       2   16200   16212  -16203  -16215       2
   16395   16398  -16404  -16413       2   16389   16404  -16398  -16410       2
   16386   16404  -16395  -16407       2   16368   16398  -16389  -16401       2
   16356   16362  -16374  -16392       2   16350   16386  -16365  -16383       2
   16341   16374  -16362  -16380       2   16338   16374  -16356  -16377       2
   16332   16368  -16353  -16371       2   16320   16356  -16338  -16359       2
   16314   16350  -16329  -16347       2   16314   16341  -16326  -16344       2
   16308   16332  -16317  -16335       2   16308   16320  -16311  -16323       2
   16503   16506  -16512  -16521       2   16497   16512  -16506  -16518       2
   16494   16512  -16503  -16515       2   16476   16506  -16497  -16509       2
   16464   16470  -16482  -16500       2   16458   16494  -16473  -16491       2
   16449   16482  -16470  -16488       2   16446   16482  -16464  -16485       2
   16440   16476  -16461  -16479       2   16428   16464  -16446  -16467       2
   16422   16458  -16437  -16455       2   16422   16449  -16434  -16452       2
   16416   16440  -16425  -16443       2   16416   16428  -16419  -16431       2
   16611   16614  -16620  -16629       2   16605   16620  -16614  -16626       2
   16602   16620  -16611  -16623       2   16584   16614  -16605  -16617       2
   16572   16578  -16590  -16608       2   16566   16602  -16581  -16599       2
   16557   16590  -16578  -16596       2   16554   16590  -16572  -16593       2
   16548   16584  -16569  -16587       2   16536   16572  -16554  -16575       2
   16530   16566  -16545  -16563       2   16530   16557  -16542  -16560       2
   16524   16548  -16533  -16551       2   16524   16536  -16527  -16539       2
   16719   16722  -16728  -16737       2   16713   16728  -16722  -16734       2
   16710   16728  -16719  -16731       2   16692   16722  -16713  -16725       2
   16680   16686  -16698  -16716       2   16674   16710  -16689  -16707       2
   16665   16698  -16686  -16704       2   16662   16698  -16680  -16701       2
   16656   16692  -16677  -16695       2   16644   16680  -16662  -16683       2
   16638   16674  -16653  -16671       2   16638   16665  -16650  -16668       2
   16632   16656  -16641  -16659       2   16632   16644  -16635  -16647       2
   16827   16830  -16836  -16845       2   16821   16836  -16830  -16842       2
   16818   16836  -16827  -16839       2   16800   16830  -16821  -16833       2
   16788   16794  -16806  -16824       2   16782   16818  -16797  -16815       2
   16773   16806  -16794  -16812       2   16770   16806  -16788  -16809       2
   16764   16800  -16785  -16803       2   16752   16788  -16770  -16791       2
   16746   16782  -16761  -16779       2   16746   16773  -16758  -16776       2
   16740   16764  -16749  -16767       2   16740   16752  -16743  -16755       2
   16935   16938  -16944  -16953       2   16929   16944  -16938  -16950       2
   16926   16944  -16935  -16947       2   16908   16938  -16929  -16941       2
   16896   16902  -16914  -16932       2   16890   16926  -16905  -16923       2
   16881   16914  -16902  -16920       2   16878   16914  -16896  -16917       2
   16872   16908  -16893  -16911       2   16860   16896  -16878  -16899       2
   16854   16890  -16869  -16887       2   16854   16881  -16866  -16884       2
   16848   16872  -16857  -16875       2   16848   16860  -16851  -16863       2
   17043   17046  -17052  -17061       2   17037   17052  -17046  -17058       2
   17034   17052  -17043  -17055       2   17016   17046  -17037  -17049       2
   17004   17010  -17022  -17040       2   16998   17034  -17013  -17031       2
   16989   17022  -17010  -17028       2   16986   17022  -17004  -17025       2
   16980   17016  -17001  -17019       2   16968   17004  -16986  -17007       2
   16962   16998  -16977  -16995       2   16962   16989  -16974  -16992       2
   16956   16980  -16965  -16983       2   16956   16968  -16959  -16971       2
   17151   17154  -17160  -17169       2   17145   17160  -17154  -17166       2
   17142   17160  -17151  -17163       2   17124   17154  -17145  -17157       2
   17112   17118  -17130  -17148       2   17106   17142  -17121  -17139       2
   17097   17130  -17118  -17136       2   17094   17130  -17112  -17133       2
   17088   17124  -17109  -17127       2   17076   17112  -17094  -17115       2
   17070   17106  -17085  -17103       2   17070   17097  -17082  -17100       2
   17064   17088  -17073  -17091       2   17064   17076  -17067  -17079       2
   17259   17262  -17268  -17277       2   17253   17268  -17262  -17274       2
   17250   17268  -17259  -17271       2   17232   17262  -17253  -17265       2
   17220   17226  -17238  -17256       2   17214   17250  -17229  -17247       2
   17205   17238  -17226  -17244       2   17202   17238  -17220  -17241       2
   17196   17232  -17217  -17235       2   17184   17220  -17202  -17223       2
   17178   17214  -17193  -17211       2   17178   17205  -17190  -17208       2
   17172   17196  -17181  -17199       2   17172   17184  -17175  -17187       2
   17367   17370  -17376  -17385       2   17361   17376  -17370  -17382       2
   17358   17376  -17367  -17379       2   17340   17370  -17361  -17373       2
   17328   17334  -17346  -17364       2   17322   17358  -17337  -17355       2
   17313   17346  -17334  -17352       2   17310   17346  -17328  -17349       2
   17304   17340  -17325  -17343       2   17292   17328  -17310  -17331       2
   17286   17322  -17301  -17319       2   17286   17313  -17298  -17316       2
   17280   17304  -17289  -17307       2   17280   17292  -17283  -17295       2
   17475   17478  -17484  -17493       2   17469   17484  -17478  -17490       2
   17466   17484  -17475  -17487       2   17448   17478  -17469  -17481       2
   17436   17442  -17454  -17472       2   17430   17466  -17445  -17463       2
   17421   17454  -17442  -17460       2   17418   17454  -17436  -17457       2
   17412   17448  -17433  -17451       2   17400   17436  -17418  -17439       2
   17394   17430  -17409  -17427       2   17394   17421  -17406  -17424       2
   17388   17412  -17397  -17415       2   17388   17400  -17391  -17403       2
   17583   17586  -17592  -17601       2   17577   17592  -17586  -17598       2
   17574   17592  -17583  -17595       2   17556   17586  -17577  -17589       2
   17544   17550  -17562  -17580       2   17538   17574  -17553  -17571       2
   17529   17562  -17550  -17568       2   17526   17562  -17544  -17565       2
   17520   17556  -17541  -17559       2   17508   17544  -17526  -17547       2
   17502   17538  -17517  -17535       2   17502   17529  -17514  -17532       2
   17496   17520  -17505  -17523       2   17496   17508  -17499  -17511       2
   17691   17694  -17700  -17709       2   17685   17700  -17694  -17706       2
   17682   17700  -17691  -17703       2   17664   17694  -17685  -17697       2
   17652   17658  -17670  -17688       2   17646   17682  -17661  -17679       2
   17637   17670  -17658  -17676       2   17634   17670  -17652  -17673       2
   17628   17664  -17649  -17667       2   17616   17652  -17634  -17655       2
   17610   17646  -17625  -17643       2   17610   17637  -17622  -17640       2
   17604   17628  -17613  -17631       2   17604   17616  -17607  -17619       2
   17799   17802  -17808  -17817       2   17793   17808  -17802  -17814       2
   17790   17808  -17799  -17811       2   17772   17802  -17793  -17805       2
   17760   17766  -17778  -17796       2   17754   17790  -17769  -17787       2
   17745   17778  -17766  -17784       2   17742   17778  -17760  -17781       2
   17736   17772  -17757  -17775       2   17724   17760  -17742  -17763       2
   17718   17754  -17733  -17751       2   17718   17745  -17730  -17748       2
   17712   17736  -17721  -17739       2   17712   17724  -17715  -17727       2
   17907   17910  -17916  -17925       2   17901   17916  -17910  -17922       2
   17898   17916  -17907  -17919       2   17880   17910  -17901  -17913       2
   17868   17874  -17886  -17904       2   17862   17898  -17877  -17895       2
   17853   17886  -17874  -17892       2   17850   17886  -17868  -17889       2
   17844   17880  -17865  -17883       2   17832   17868  -17850  -17871       2
   17826   17862  -17841  -17859       2   17826   17853  -17838  -17856       2
   17820   17844  -17829  -17847       2   17820   17832  -17823  -17835       2
   18015   18018  -18024  -18033       2   18009   18024  -18018  -18030       2
   18006   18024  -18015  -18027       2   17988   18018  -18009  -18021       2
   17976   17982  -17994  -18012       2   17970   18006  -17985  -18003       2
   17961   17994  -17982  -18000       2   17958   17994  -17976  -17997       2
   17952   17988  -17973  -17991       2   17940   17976  -17958  -17979       2
   17934   17970  -17949  -17967       2   17934   17961  -17946  -17964       2
   17928   17952  -17937  -17955       2   17928   17940  -17931  -17943       2
   18123   18126  -18132  -18141       2   18117   18132  -18126  -18138       2
   18114   18132  -18123  -18135       2   18096   18126  -18117  -18129       2
   18084   18090  -18102  -18120       2   18078   18114  -18093  -18111       2
   18069   18102  -18090  -18108       2   18066   18102  -18084  -18105       2
   18060   18096  -18081  -18099       2   18048   18084  -18066  -18087       2
   18042   18078  -18057  -18075       2   18042   18069  -18054  -18072       2
   18036   18060  -18045  -18063       2   18036   18048  -18039  -18051       2
   18231   18234  -18240  -18249       2   18225   18240  -18234  -18246       2
   18222   18240  -18231  -18243       2   18204   18234  -18225  -18237       2
   18192   18198  -18210  -18228       2   18186   18222  -18201  -18219       2
   18177   18210  -18198  -18216       2   18174   18210  -18192  -18213       2
   18168   18204  -18189  -18207       2   18156   18192  -18174  -18195       2
   18150   18186  -18165  -18183       2   18150   18177  -18162  -18180       2
   18144   18168  -18153  -18171       2   18144   18156  -18147  -18159       2
   18339   18342  -18348  -18357       2   18333   18348  -18342  -18354       2
   18330   18348  -18339  -18351       2   18312   18342  -18333  -18345       2
   18300   18306  -18318  -18336       2   18294   18330  -18309  -18327       2
   18285   18318  -18306  -18324       2   18282   18318  -18300  -18321       2
   18276   18312  -18297  -18315       2   18264   18300  -18282  -18303       2
   18258   18294  -18273  -18291       2   18258   18285  -18270  -18288       2
   18252   18276  -18261  -18279       2   18252   18264  -18255  -18267       2
   18447   18450  -18456  -18465       2   18441   18456  -18450  -18462       2
   18438   18456  -18447  -18459       2   18420   18450  -18441  -18453       2
   18408   18414  -18426  -18444       2   18402   18438  -18417  -18435       2
   18393   18426  -18414  -18432       2   18390   18426  -18408  -18429       2
   18384   18420  -18405  -18423       2   18372   18408  -18390  -18411       2
   18366   18402  -18381  -18399       2   18366   18393  -18378  -18396       2
   18360   18384  -18369  -18387       2   18360   18372  -18363  -18375       2
   18555   18558  -18564  -18573       2   18549   18564  -18558  -18570       2
   18546   18564  -18555  -18567       2   18528   18558  -18549  -18561       2
   18516   18522  -18534  -18552       2   18510   18546  -18525  -18543       2
   18501   18534  -18522  -18540       2   18498   18534  -18516  -18537       2
   18492   18528  -18513  -18531       2   18480   18516  -18498  -18519       2
   18474   18510  -18489  -18507       2   18474   18501  -18486  -18504       2
   18468   18492  -18477  -18495       2   18468   18480  -18471  -18483       2
   18663   18666  -18672  -18681       2   18657   18672  -18666  -18678       2
   18654   18672  -18663  -18675       2   18636   18666  -18657  -18669       2
   18624   18630  -18642  -18660       2   18618   18654  -18633  -18651       2
   18609   18642  -18630  -18648       2   18606   18642  -18624  -18645       2
   18600   18636  -18621  -18639       2   18588   18624  -18606  -18627       2
   18582   18618  -18597  -18615       2   18582   18609  -18594  -18612       2
   18576   18600  -18585  -18603       2   18576   18588  -18579  -18591       2
   18771   18774  -18780  -18789       2   18765   18780  -18774  -18786       2
   18762   18780  -18771  -18783       2   18744   18774  -18765  -18777       2
   18732   18738  -18750  -18768       2   18726   18762  -18741  -18759       2
   18717   18750  -18738  -18756       2   18714   18750  -18732  -18753       2
   18708   18744  -18729  -18747       2   18696   18732  -18714  -18735       2
   18690   18726  -18705  -18723       2   18690   18717  -18702  -18720       2
   18684   18708  -18693  -18711       2   18684   18696  -18687  -18699       2
   18879   18882  -18888  -18897       2   18873   18888  -18882  -18894       2
   18870   18888  -18879  -18891       2   18852   18882  -18873  -18885       2
   18840   18846  -18858  -18876       2   18834   18870  -18849  -18867       2
   18825   18858  -18846  -18864       2   18822   18858  -18840  -18861       2
   18816   18852  -18837  -18855       2   18804   18840  -18822  -18843       2
   18798   18834  -18813  -18831       2   18798   18825  -18810  -18828       2
   18792   18816  -18801  -18819       2   18792   18804  -18795  -18807       2
   18987   18990  -18996  -19005       2   18981   18996  -18990  -19002       2
   18978   18996  -18987  -18999       2   18960   18990  -18981  -18993       2
   18948   18954  -18966  -18984       2   18942   18978  -18957  -18975       2
   18933   18966  -18954  -18972       2   18930   18966  -18948  -18969       2
   18924   18960  -18945  -18963       2   18912   18948  -18930  -18951       2
   18906   18942  -18921  -18939       2   18906   18933  -18918  -18936       2
   18900   18924  -18909  -18927       2   18900   18912  -18903  -18915       2
   19095   19098  -19104  -19113       2   19089   19104  -19098  -19110       2
   19086   19104  -19095  -19107       2   19068   19098  -19089  -19101       2
   19056   19062  -19074  -19092       2   19050   19086  -19065  -19083       2
   19041   19074  -19062  -19080       2   19038   19074  -19056  -19077       2
   19032   19068  -19053  -19071       2   19020   19056  -19038  -19059       2
   19014   19050  -19029  -19047       2   19014   19041  -19026  -19044       2
   19008   19032  -19017  -19035       2   19008   19020  -19011  -19023       2
   19203   19206  -19212  -19221       2   19197   19212  -19206  -19218       2
   19194   19212  -19203  -19215       2   19176   19206  -19197  -19209       2
   19164   19170  -19182  -19200       2   19158   19194  -19173  -19191       2
   19149   19182  -19170  -19188       2   19146   19182  -19164  -19185       2
   19140   19176  -19161  -19179       2   19128   19164  -19146  -19167       2
   19122   19158  -19137  -19155       2   19122   19149  -19134  -19152       2
   19116   19140  -19125  -19143       2   19116   19128  -19119  -19131       2
   19311   19314  -19320  -19329       2   19305   19320  -19314  -19326       2
   19302   19320  -19311  -19323       2   19284   19314  -19305  -19317       2
   19272   19278  -19290  -19308       2   19266   19302  -19281  -19299       2
   19257   19290  -19278  -19296       2   19254   19290  -19272  -19293       2
   19248   19284  -19269  -19287       2   19236   19272  -19254  -19275       2
   19230   19266  -19245  -19263       2   19230   19257  -19242  -19260       2
   19224   19248  -19233  -19251       2   19224   19236  -19227  -19239       2
   19419   19422  -19428  -19437       2   19413   19428  -19422  -19434       2
   19410   19428  -19419  -19431       2   19392   19422  -19413  -19425       2
   19380   19386  -19398  -19416       2   19374   19410  -19389  -19407       2
   19365   19398  -19386  -19404       2   19362   19398  -19380  -19401       2
   19356   19392  -19377  -19395       2   19344   19380  -19362  -19383       2
   19338   19374  -19353  -19371       2   19338   19365  -19350  -19368       2
   19332   19356  -19341  -19359       2   19332   19344  -19335  -19347       2
   19527   19530  -19536  -19545       2   19521   19536  -19530  -19542       2
   19518   19536  -19527  -19539       2   19500   19530  -19521  -19533       2
   19488   19494  -19506  -19524       2   19482   19518  -19497  -19515       2
   19473   19506  -19494  -19512       2   19470   19506  -19488  -19509       2
   19464   19500  -19485  -19503       2   19452   19488  -19470  -19491       2
   19446   19482  -19461  -19479       2   19446   19473  -19458  -19476       2
   19440   19464  -19449  -19467       2   19440   19452  -19443  -19455       2
   19635   19638  -19644  -19653       2   19629   19644  -19638  -19650       2
   19626   19644  -19635  -19647       2   19608   19638  -19629  -19641       2
   19596   19602  -19614  -19632       2   19590   19626  -19605  -19623       2
   19581   19614  -19602  -19620       2   19578   19614  -19596  -19617       2
   19572   19608  -19593  -19611       2   19560   19596  -19578  -19599       2
   19554   19590  -19569  -19587       2   19554   19581  -19566  -19584       2
   19548   19572  -19557  -19575       2   19548   19560  -19551  -19563       2
   19743   19746  -19752  -19761       2   19737   19752  -19746  -19758       2
   19734   19752  -19743  -19755       2   19716   19746  -19737  -19749       2
   19704   19710  -19722  -19740       2   19698   19734  -19713  -19731       2
   19689   19722  -19710  -19728       2   19686   19722  -19704  -19725       2
   19680   19716  -19701  -19719       2   19668   19704  -19686  -19707       2
   19662   19698  -19677  -19695       2   19662   19689  -19674  -19692       2
   19656   19680  -19665  -19683       2   19656   19668  -19659  -19671       2
   19851   19854  -19860  -19869       2   19845   19860  -19854  -19866       2
   19842   19860  -19851  -19863       2   19824   19854  -19845  -19857       2
   19812   19818  -19830  -19848       2   19806   19842  -19821  -19839       2
   19797   19830  -19818  -19836       2   19794   19830  -19812  -19833       2
   19788   19824  -19809  -19827       2   19776   19812  -19794  -19815       2
   19770   19806  -19785  -19803       2   19770   19797  -19782  -19800       2
   19764   19788  -19773  -19791       2   19764   19776  -19767  -19779       2
   19959   19962  -19968  -19977       2   19953   19968  -19962  -19974       2
   19950   19968  -19959  -19971       2   19932   19962  -19953  -19965       2
   19920   19926  -19938  -19956       2   19914   19950  -19929  -19947       2
   19905   19938  -19926  -19944       2   19902   19938  -19920  -19941       2
   19896   19932  -19917  -19935       2   19884   19920  -19902  -19923       2
   19878   19914  -19893  -19911       2   19878   19905  -19890  -19908       2
   19872   19896  -19881  -19899       2   19872   19884  -19875  -19887       2
   20067   20070  -20076  -20085       2   20061   20076  -20070  -20082       2
   20058   20076  -20067  -20079       2   20040   20070  -20061  -20073       2
   20028   20034  -20046  -20064       2   20022   20058  -20037  -20055       2
   20013   20046  -20034  -20052       2   20010   20046  -20028  -20049       2
   20004   20040  -20025  -20043       2   19992   20028  -20010  -20031       2
   19986   20022  -20001  -20019       2   19986   20013  -19998  -20016       2
   19980   20004  -19989  -20007       2   19980   19992  -19983  -19995       2
   20175   20178  -20184  -20193       2   20169   20184  -20178  -20190       2
   20166   20184  -20175  -20187       2   20148   20178  -20169  -20181       2
   20136   20142  -20154  -20172       2   20130   20166  -20145  -20163       2
   20121   20154  -20142  -20160       2   20118   20154  -20136  -20157       2
   20112   20148  -20133  -20151       2   20100   20136  -20118  -20139       2
   20094   20130  -20109  -20127       2   20094   20121  -20106  -20124       2
   20088   20112  -20097  -20115       2   20088   20100  -20091  -20103       2
   20283   20286  -20292  -20301       2   20277   20292  -20286  -20298       2
   20274   20292  -20283  -20295       2   20256   20286  -20277  -20289       2
   20244   20250  -20262  -20280       2   20238   20274  -20253  -20271       2
   20229   20262  -20250  -20268       2   20226   20262  -20244  -20265       2
   20220   20256  -20241  -20259       2   20208   20244  -20226  -20247       2
   20202   20238  -20217  -20235       2   20202   20229  -20214  -20232       2
   20196   20220  -20205  -20223       2   20196   20208  -20199  -20211       2
   20391   20394  -20400  -20409       2   20385   20400  -20394  -20406       2
   20382   20400  -20391  -20403       2   20364   20394  -20385  -20397       2
   20352   20358  -20370  -20388       2   20346   20382  -20361  -20379       2
   20337   20370  -20358  -20376       2   20334   20370  -20352  -20373       2
   20328   20364  -20349  -20367       2   20316   20352  -20334  -20355       2
   20310   20346  -20325  -20343       2   20310   20337  -20322  -20340       2
   20304   20328  -20313  -20331       2   20304   20316  -20307  -20319       2
   20499   20502  -20508  -20517       2   20493   20508  -20502  -20514       2
   20490   20508  -20499  -20511       2   20472   20502  -20493  -20505       2
   20460   20466  -20478  -20496       2   20454   20490  -20469  -20487       2
   20445   20478  -20466  -20484       2   20442   20478  -20460  -20481       2
   20436   20472  -20457  -20475       2   20424   20460  -20442  -20463       2
   20418   20454  -20433  -20451       2   20418   20445  -20430  -20448       2
   20412   20436  -20421  -20439       2   20412   20424  -20415  -20427       2
   20607   20610  -20616  -20625       2   20601   20616  -20610  -20622       2
   20598   20616  -20607  -20619       2   20580   20610  -20601  -20613       2
   20568   20574  -20586  -20604       2   20562   20598  -20577  -20595       2
   20553   20586  -20574  -20592       2   20550   20586  -20568  -20589       2
   20544   20580  -20565  -20583       2   20532   20568  -20550  -20571       2
   20526   20562  -20541  -20559       2   20526   20553  -20538  -20556       2
   20520   20544  -20529  -20547       2   20520   20532  -20523  -20535       2
   20715   20718  -20724  -20733       2   20709   20724  -20718  -20730       2
   20706   20724  -20715  -20727       2   20688   20718  -20709  -20721       2
   20676   20682  -20694  -20712       2   20670   20706  -20685  -20703       2
   20661   20694  -20682  -20700       2   20658   20694  -20676  -20697       2
   20652   20688  -20673  -20691       2   20640   20676  -20658  -20679       2
   20634   20670  -20649  -20667       2   20634   20661  -20646  -20664       2
   20628   20652  -20637  -20655       2   20628   20640  -20631  -20643       2
   20823   20826  -20832  -20841       2   20817   20832  -20826  -20838       2
   20814   20832  -20823  -20835       2   20796   20826  -20817  -20829       2
   20784   20790  -20802  -20820       2   20778   20814  -20793  -20811       2
   20769   20802  -20790  -20808       2   20766   20802  -20784  -20805       2
   20760   20796  -20781  -20799       2   20748   20784  -20766  -20787       2
   20742   20778  -20757  -20775       2   20742   20769  -20754  -20772       2
   20736   20760  -20745  -20763       2   20736   20748  -20739  -20751       2
   20931   20934  -20940  -20949       2   20925   20940  -20934  -20946       2
   20922   20940  -20931  -20943       2   20904   20934  -20925  -20937       2
   20892   20898  -20910  -20928       2   20886   20922  -20901  -20919       2
   20877   20910  -20898  -20916       2   20874   20910  -20892  -20913       2
   20868   20904  -20889  -20907       2   20856   20892  -20874  -20895       2
   20850   20886  -20865  -20883       2   20850   20877  -20862  -20880       2
   20844   20868  -20853  -20871       2   20844   20856  -20847  -20859       2
   21039   21042  -21048  -21057       2   21033   21048  -21042  -21054       2
   21030   21048  -21039  -21051       2   21012   21042  -21033  -21045       2
   21000   21006  -21018  -21036       2   20994   21030  -21009  -21027       2
   20985   21018  -21006  -21024       2   20982   21018  -21000  -21021       2
   20976   21012  -20997  -21015       2   20964   21000  -20982  -21003       2
   20958   20994  -20973  -20991       2   20958   20985  -20970  -20988       2
   20952   20976  -20961  -20979       2   20952   20964  -20955  -20967       2
   21147   21150  -21156  -21165       2   21141   21156  -21150  -21162       2
   21138   21156  -21147  -21159       2   21120   21150  -21141  -21153       2
   21108   21114  -21126  -21144       2   21102   21138  -21117  -21135       2
   21093   21126  -21114  -21132       2   21090   21126  -21108  -21129       2
   21084   21120  -21105  -21123       2   21072   21108  -21090  -21111       2
   21066   21102  -21081  -21099       2   21066   21093  -21078  -21096       2
   21060   21084  -21069  -21087       2   21060   21072  -21063  -21075       2
   21255   21258  -21264  -21273       2   21249   21264  -21258  -21270       2
   21246   21264  -21255  -21267       2   21228   21258  -21249  -21261       2
   21216   21222  -21234  -21252       2   21210   21246  -21225  -21243       2
   21201   21234  -21222  -21240       2   21198   21234  -21216  -21237       2
   21192   21228  -21213  -21231       2   21180   21216  -21198  -21219       2
   21174   21210  -21189  -21207       2   21174   21201  -21186  -21204       2
   21168   21192  -21177  -21195       2   21168   21180  -21171  -21183       2
   21363   21366  -21372  -21381       2   21357   21372  -21366  -21378       2
   21354   21372  -21363  -21375       2   21336   21366  -21357  -21369       2
   21324   21330  -21342  -21360       2   21318   21354  -21333  -21351       2
   21309   21342  -21330  -21348       2   21306   21342  -21324  -21345       2
   21300   21336  -21321  -21339       2   21288   21324  -21306  -21327       2
   21282   21318  -21297  -21315       2   21282   21309  -21294  -21312       2
   21276   21300  -21285  -21303       2   21276   21288  -21279  -21291       2
   21471   21474  -21480  -21489       2   21465   21480  -21474  -21486       2
   21462   21480  -21471  -21483       2   21444   21474  -21465  -21477       2
   21432   21438  -21450  -21468       2   21426   21462  -21441  -21459       2
   21417   21450  -21438  -21456       2   21414   21450  -21432  -21453       2
   21408   21444  -21429  -21447       2   21396   21432  -21414  -21435       2
   21390   21426  -21405  -21423       2   21390   21417  -21402  -21420       2
   21384   21408  -21393  -21411       2   21384   21396  -21387  -21399       2
   21579   21582  -21588  -21597       2   21573   21588  -21582  -21594       2
   21570   21588  -21579  -21591       2   21552   21582  -21573  -21585       2
   21540   21546  -21558  -21576       2   21534   21570  -21549  -21567       2
   21525   21558  -21546  -21564       2   21522   21558  -21540  -21561       2
   21516   21552  -21537  -21555       2   21504   21540  -21522  -21543       2
   21498   21534  -21513  -21531       2   21498   21525  -21510  -21528       2
   21492   21516  -21501  -21519       2   21492   21504  -21495  -21507       2
   21687   21690  -21696  -21705       2   21681   21696  -21690  -21702       2
   21678   21696  -21687  -21699       2   21660   21690  -21681  -21693       2
   21648   21654  -21666  -21684       2   21642   21678  -21657  -21675       2
   21633   21666  -21654  -21672       2   21630   21666  -21648  -21669       2
   21624   21660  -21645  -21663       2   21612   21648  -21630  -21651       2
   21606   21642  -21621  -21639       2   21606   21633  -21618  -21636       2
   21600   21624  -21609  -21627       2   21600   21612  -21603  -21615       2
   21795   21798  -21804  -21813       2   21789   21804  -21798  -21810       2
   21786   21804  -21795  -21807       2   21768   21798  -21789  -21801       2
   21756   21762  -21774  -21792       2   21750   21786  -21765  -21783       2
   21741   21774  -21762  -21780       2   21738   21774  -21756  -21777       2
   21732   21768  -21753  -21771       2   21720   21756  -21738  -21759       2
   21714   21750  -21729  -21747       2   21714   21741  -21726  -21744       2
   21708   21732  -21717  -21735       2   21708   21720  -21711  -21723       2
   21903   21906  -21912  -21921       2   21897   21912  -21906  -21918       2
   21894   21912  -21903  -21915       2   21876   21906  -21897  -21909       2
   21864   21870  -21882  -21900       2   21858   21894  -21873  -21891       2
   21849   21882  -21870  -21888       2   21846   21882  -21864  -21885       2
   21840   21876  -21861  -21879       2   21828   21864  -21846  -21867       2
   21822   21858  -21837  -21855       2   21822   21849  -21834  -21852       2
   21816   21840  -21825  -21843       2   21816   21828  -21819  -21831       2
   22011   22014  -22020  -22029       2   22005   22020  -22014  -22026       2
   22002   22020  -22011  -22023       2   21984   22014  -22005  -22017       2
   21972   21978  -21990  -22008       2   21966   22002  -21981  -21999       2
   21957   21990  -21978  -21996       2   21954   21990  -21972  -21993       2
   21948   21984  -21969  -21987       2   21936   21972  -21954  -21975       2
   21930   21966  -21945  -21963       2   21930   21957  -21942  -21960       2
   21924   21948  -21933  -21951       2   21924   21936  -21927  -21939       2
   22119   22122  -22128  -22137       2   22113   22128  -22122  -22134       2
   22110   22128  -22119  -22131       2   22092   22122  -22113  -22125       2
   22080   22086  -22098  -22116       2   22074   22110  -22089  -22107       2
   22065   22098  -22086  -22104       2   22062   22098  -22080  -22101       2
   22056   22092  -22077  -22095       2   22044   22080  -22062  -22083       2
   22038   22074  -22053  -22071       2   22038   22065  -22050  -22068       2
   22032   22056  -22041  -22059       2   22032   22044  -22035  -22047       2
   22227   22230  -22236  -22245       2   22221   22236  -22230  -22242       2
   22218   22236  -22227  -22239       2   22200   22230  -22221  -22233       2
   22188   22194  -22206  -22224       2   22182   22218  -22197  -22215       2
   22173   22206  -22194  -22212       2   22170   22206  -22188  -22209       2
   22164   22200  -22185  -22203       2   22152   22188  -22170  -22191       2
   22146   22182  -22161  -22179       2   22146   22173  -22158  -22176       2
   22140   22164  -22149  -22167       2   22140   22152  -22143  -22155       2
   22335   22338  -22344  -22353       2   22329   22344  -22338  -22350       2
   22326   22344  -22335  -22347       2   22308   22338  -22329  -22341       2
   22296   22302  -22314  -22332       2   22290   22326  -22305  -22323       2
   22281   22314  -22302  -22320       2   22278   22314  -22296  -22317       2
   22272   22308  -22293  -22311       2   22260   22296  -22278  -22299       2
   22254   22290  -22269  -22287       2   22254   22281  -22266  -22284       2
   22248   22272  -22257  -22275       2   22248   22260  -22251  -22263       2
   22443   22446  -22452  -22461       2   22437   22452  -22446  -22458       2
   22434   22452  -22443  -22455       2   22416   22446  -22437  -22449       2
   22404   22410  -22422  -22440       2   22398   22434  -22413  -22431       2
   22389   22422  -22410  -22428       2   22386   22422  -22404  -22425       2
   22380   22416  -22401  -22419       2   22368   22404  -22386  -22407       2
   22362   22398  -22377  -22395       2   22362   22389  -22374  -22392       2
   22356   22380  -22365  -22383       2   22356   22368  -22359  -22371       2
   22551   22554  -22560  -22569       2   22545   22560  -22554  -22566       2
   22542   22560  -22551  -22563       2   22524   22554  -22545  -22557       2
   22512   22518  -22530  -22548       2   22506   22542  -22521  -22539       2
   22497   22530  -22518  -22536       2   22494   22530  -22512  -22533       2
   22488   22524  -22509  -22527       2   22476   22512  -22494  -22515       2
   22470   22506  -22485  -22503       2   22470   22497  -22482  -22500       2
   22464   22488  -22473  -22491       2   22464   22476  -22467  -22479       2
   22659   22662  -22668  -22677       2   22653   22668  -22662  -22674       2
   22650   22668  -22659  -22671       2   22632   22662  -22653  -22665       2
   22620   22626  -22638  -22656       2   22614   22650  -22629  -22647       2
   22605   22638  -22626  -22644       2   22602   22638  -22620  -22641       2
   22596   22632  -22617  -22635       2   22584   22620  -22602  -22623       2
   22578   22614  -22593  -22611       2   22578   22605  -22590  -22608       2
   22572   22596  -22581  -22599       2   22572   22584  -22575  -22587       2
   22767   22770  -22776  -22785       2   22761   22776  -22770  -22782       2
   22758   22776  -22767  -22779       2   22740   22770  -22761  -22773       2
   22728   22734  -22746  -22764       2   22722   22758  -22737  -22755       2
   22713   22746  -22734  -22752       2   22710   22746  -22728  -22749       2
   22704   22740  -22725  -22743       2   22692   22728  -22710  -22731       2
   22686   22722  -22701  -22719       2   22686   22713  -22698  -22716       2
   22680   22704  -22689  -22707       2   22680   22692  -22683  -22695       2
   22875   22878  -22884  -22893       2   22869   22884  -22878  -22890       2
   22866   22884  -22875  -22887       2   22848   22878  -22869  -22881       2
   22836   22842  -22854  -22872       2   22830   22866  -22845  -22863       2
   22821   22854  -22842  -22860       2   22818   22854  -22836  -22857       2
   22812   22848  -22833  -22851       2   22800   22836  -22818  -22839       2
   22794   22830  -22809  -22827       2   22794   22821  -22806  -22824       2
   22788   22812  -22797  -22815       2   22788   22800  -22791  -22803       2
   22983   22986  -22992  -23001       2   22977   22992  -22986  -22998       2
   22974   22992  -22983  -22995       2   22956   22986  -22977  -22989       2
   22944   22950  -22962  -22980       2   22938   22974  -22953  -22971       2
   22929   22962  -22950  -22968       2   22926   22962  -22944  -22965       2
   22920   22956  -22941  -22959       2   22908   22944  -22926  -22947       2
   22902   22938  -22917  -22935       2   22902   22929  -22914  -22932       2
   22896   22920  -22905  -22923       2   22896   22908  -22899  -22911       2
   23091   23094  -23100  -23109       2   23085   23100  -23094  -23106       2
   23082   23100  -23091  -23103       2   23064   23094  -23085  -23097       2
   23052   23058  -23070  -23088       2   23046   23082  -23061  -23079       2
   23037   23070  -23058  -23076       2   23034   23070  -23052  -23073       2
   23028   23064  -23049  -23067       2   23016   23052  -23034  -23055       2
   23010   23046  -23025  -23043       2   23010   23037  -23022  -23040       2
   23004   23028  -23013  -23031       2   23004   23016  -23007  -23019       2
   23199   23202  -23208  -23217       2   23193   23208  -23202  -23214       2
   23190   23208  -23199  -23211       2   23172   23202  -23193  -23205       2
   23160   23166  -23178  -23196       2   23154   23190  -23169  -23187       2
   23145   23178  -23166  -23184       2   23142   23178  -23160  -23181       2
   23136   23172  -23157  -23175       2   23124   23160  -23142  -23163       2
   23118   23154  -23133  -23151       2   23118   23145  -23130  -23148       2
   23112   23136  -23121  -23139       2   23112   23124  -23115  -23127       2
   23307   23310  -23316  -23325       2   23301   23316  -23310  -23322       2
   23298   23316  -23307  -23319       2   23280   23310  -23301  -23313       2
   23268   23274  -23286  -23304       2   23262   23298  -23277  -23295       2
   23253   23286  -23274  -23292       2   23250   23286  -23268  -23289       2
   23244   23280  -23265  -23283       2   23232   23268  -23250  -23271       2
   23226   23262  -23241  -23259       2   23226   23253  -23238  -23256       2
   23220   23244  -23229  -23247       2   23220   23232  -23223  -23235       2
   23415   23418  -23424  -23433       2   23409   23424  -23418  -23430       2
   23406   23424  -23415  -23427       2   23388   23418  -23409  -23421       2
   23376   23382  -23394  -23412       2   23370   23406  -23385  -23403       2
   23361   23394  -23382  -23400       2   23358   23394  -23376  -23397       2
   23352   23388  -23373  -23391       2   23340   23376  -23358  -23379       2
   23334   23370  -23349  -23367       2   23334   23361  -23346  -23364       2
   23328   23352  -23337  -23355       2   23328   23340  -23331  -23343       2
   23523   23526  -23532  -23541       2   23517   23532  -23526  -23538       2
   23514   23532  -23523  -23535       2   23496   23526  -23517  -23529       2
   23484   23490  -23502  -23520       2   23478   23514  -23493  -23511       2
   23469   23502  -23490  -23508       2   23466   23502  -23484  -23505       2
   23460   23496  -23481  -23499       2   23448   23484  -23466  -23487       2
   23442   23478  -23457  -23475       2   23442   23469  -23454  -23472       2
   23436   23460  -23445  -23463       2   23436   23448  -23439  -23451       2
   23631   23634  -23640  -23649       2   23625   23640  -23634  -23646       2
   23622   23640  -23631  -23643       2   23604   23634  -23625  -23637       2
   23592   23598  -23610  -23628       2   23586   23622  -23601  -23619       2
   23577   23610  -23598  -23616       2   23574   23610  -23592  -23613       2
   23568   23604  -23589  -23607       2   23556   23592  -23574  -23595       2
   23550   23586  -23565  -23583       2   23550   23577  -23562  -23580       2
   23544   23568  -23553  -23571       2   23544   23556  -23547  -23559       2
   23739   23742  -23748  -23757       2   23733   23748  -23742  -23754       2
   23730   23748  -23739  -23751       2   23712   23742  -23733  -23745       2
   23700   23706  -23718  -23736       2   23694   23730  -23709  -23727       2
   23685   23718  -23706  -23724       2   23682   23718  -23700  -23721       2
   23676   23712  -23697  -23715       2   23664   23700  -23682  -23703       2
   23658   23694  -23673  -23691       2   23658   23685  -23670  -23688       2
   23652   23676  -23661  -23679       2   23652   23664  -23655  -23667       2
   23847   23850  -23856  -23865       2   23841   23856  -23850  -23862       2
   23838   23856  -23847  -23859       2   23820   23850  -23841  -23853       2
   23808   23814  -23826  -23844       2   23802   23838  -23817  -23835       2
   23793   23826  -23814  -23832       2   23790   23826  -23808  -23829       2
   23784   23820  -23805  -23823       2   23772   23808  -23790  -23811       2
   23766   23802  -23781  -23799       2   23766   23793  -23778  -23796       2
   23760   23784  -23769  -23787       2   23760   23772  -23763  -23775       2
   23955   23958  -23964  -23973       2   23949   23964  -23958  -23970       2
   23946   23964  -23955  -23967       2   23928   23958  -23949  -23961       2
   23916   23922  -23934  -23952       2   23910   23946  -23925  -23943       2
   23901   23934  -23922  -23940       2   23898   23934  -23916  -23937       2
   23892   23928  -23913  -23931       2   23880   23916  -23898  -23919       2
   23874   23910  -23889  -23907       2   23874   23901  -23886  -23904       2
   23868   23892  -23877  -23895       2   23868   23880  -23871  -23883       2
   24063   24066  -24072  -24081       2   24057   24072  -24066  -24078       2
   24054   24072  -24063  -24075       2   24036   24066  -24057  -24069       2
   24024   24030  -24042  -24060       2   24018   24054  -24033  -24051       2
   24009   24042  -24030  -24048       2   24006   24042  -24024  -24045       2
   24000   24036  -24021  -24039       2   23988   24024  -24006  -24027       2
   23982   24018  -23997  -24015       2   23982   24009  -23994  -24012       2
   23976   24000  -23985  -24003       2   23976   23988  -23979  -23991       2
   24171   24174  -24180  -24189       2   24165   24180  -24174  -24186       2
   24162   24180  -24171  -24183       2   24144   24174  -24165  -24177       2
   24132   24138  -24150  -24168       2   24126   24162  -24141  -24159       2
   24117   24150  -24138  -24156       2   24114   24150  -24132  -24153       2
   24108   24144  -24129  -24147       2   24096   24132  -24114  -24135       2
   24090   24126  -24105  -24123       2   24090   24117  -24102  -24120       2
   24084   24108  -24093  -24111       2   24084   24096  -24087  -24099       2
   24279   24282  -24288  -24297       2   24273   24288  -24282  -24294       2
   24270   24288  -24279  -24291       2   24252   24282  -24273  -24285       2
   24240   24246  -24258  -24276       2   24234   24270  -24249  -24267       2
   24225   24258  -24246  -24264       2   24222   24258  -24240  -24261       2
   24216   24252  -24237  -24255       2   24204   24240  -24222  -24243       2
   24198   24234  -24213  -24231       2   24198   24225  -24210  -24228       2
   24192   24216  -24201  -24219       2   24192   24204  -24195  -24207       2
   24387   24390  -24396  -24405       2   24381   24396  -24390  -24402       2
   24378   24396  -24387  -24399       2   24360   24390  -24381  -24393       2
   24348   24354  -24366  -24384       2   24342   24378  -24357  -24375       2
   24333   24366  -24354  -24372       2   24330   24366  -24348  -24369       2
   24324   24360  -24345  -24363       2   24312   24348  -24330  -24351       2
   24306   24342  -24321  -24339       2   24306   24333  -24318  -24336       2
   24300   24324  -24309  -24327       2   24300   24312  -24303  -24315       2
   24495   24498  -24504  -24513       2   24489   24504  -24498  -24510       2
   24486   24504  -24495  -24507       2   24468   24498  -24489  -24501       2
   24456   24462  -24474  -24492       2   24450   24486  -24465  -24483       2
   24441   24474  -24462  -24480       2   24438   24474  -24456  -24477       2
   24432   24468  -24453  -24471       2   24420   24456  -24438  -24459       2
   24414   24450  -24429  -24447       2   24414   24441  -24426  -24444       2
   24408   24432  -24417  -24435       2   24408   24420  -24411  -24423       2
   24603   24606  -24612  -24621       2   24597   24612  -24606  -24618       2
   24594   24612  -24603  -24615       2   24576   24606  -24597  -24609       2
   24564   24570  -24582  -24600       2   24558   24594  -24573  -24591       2
   24549   24582  -24570  -24588       2   24546   24582  -24564  -24585       2
   24540   24576  -24561  -24579       2   24528   24564  -24546  -24567       2
   24522   24558  -24537  -24555       2   24522   24549  -24534  -24552       2
   24516   24540  -24525  -24543       2   24516   24528  -24519  -24531       2
   24711   24714  -24720  -24729       2   24705   24720  -24714  -24726       2
   24702   24720  -24711  -24723       2   24684   24714  -24705  -24717       2
   24672   24678  -24690  -24708       2   24666   24702  -24681  -24699       2
   24657   24690  -24678  -24696       2   24654   24690  -24672  -24693       2
   24648   24684  -24669  -24687       2   24636   24672  -24654  -24675       2
   24630   24666  -24645  -24663       2   24630   24657  -24642  -24660       2
   24624   24648  -24633  -24651       2   24624   24636  -24627  -24639       2
   24819   24822  -24828  -24837       2   24813   24828  -24822  -24834       2
   24810   24828  -24819  -24831       2   24792   24822  -24813  -24825       2
   24780   24786  -24798  -24816       2   24774   24810  -24789  -24807       2
   24765   24798  -24786  -24804       2   24762   24798  -24780  -24801       2
   24756   24792  -24777  -24795       2   24744   24780  -24762  -24783       2
   24738   24774  -24753  -24771       2   24738   24765  -24750  -24768       2
   24732   24756  -24741  -24759       2   24732   24744  -24735  -24747       2
   24927   24930  -24936  -24945       2   24921   24936  -24930  -24942       2
   24918   24936  -24927  -24939       2   24900   24930  -24921  -24933       2
   24888   24894  -24906  -24924       2   24882   24918  -24897  -24915       2
   24873   24906  -24894  -24912       2   24870   24906  -24888  -24909       2
   24864   24900  -24885  -24903       2   24852   24888  -24870  -24891       2
   24846   24882  -24861  -24879       2   24846   24873  -24858  -24876       2
   24840   24864  -24849  -24867       2   24840   24852  -24843  -24855       2
   25035   25038  -25044  -25053       2   25029   25044  -25038  -25050       2
   25026   25044  -25035  -25047       2   25008   25038  -25029  -25041       2
   24996   25002  -25014  -25032       2   24990   25026  -25005  -25023       2
   24981   25014  -25002  -25020       2   24978   25014  -24996  -25017       2
   24972   25008  -24993  -25011       2   24960   24996  -24978  -24999       2
   24954   24990  -24969  -24987       2   24954   24981  -24966  -24984       2
   24948   24972  -24957  -24975       2   24948   24960  -24951  -24963       2
   25143   25146  -25152  -25161       2   25137   25152  -25146  -25158       2
   25134   25152  -25143  -25155       2   25116   25146  -25137  -25149       2
   25104   25110  -25122  -25140       2   25098   25134  -25113  -25131       2
   25089   25122  -25110  -25128       2   25086   25122  -25104  -25125       2
   25080   25116  -25101  -25119       2   25068   25104  -25086  -25107       2
   25062   25098  -25077  -25095       2   25062   25089  -25074  -25092       2
   25056   25080  -25065  -25083       2   25056   25068  -25059  -25071       2
   25251   25254  -25260  -25269       2   25245   25260  -25254  -25266       2
   25242   25260  -25251  -25263       2   25224   25254  -25245  -25257       2
   25212   25218  -25230  -25248       2   25206   25242  -25221  -25239       2
   25197   25230  -25218  -25236       2   25194   25230  -25212  -25233       2
   25188   25224  -25209  -25227       2   25176   25212  -25194  -25215       2
   25170   25206  -25185  -25203       2   25170   25197  -25182  -25200       2
   25164   25188  -25173  -25191       2   25164   25176  -25167  -25179       2
   25359   25362  -25368  -25377       2   25353   25368  -25362  -25374       2
   25350   25368  -25359  -25371       2   25332   25362  -25353  -25365       2
   25320   25326  -25338  -25356       2   25314   25350  -25329  -25347       2
   25305   25338  -25326  -25344       2   25302   25338  -25320  -25341       2
   25296   25332  -25317  -25335       2   25284   25320  -25302  -25323       2
   25278   25314  -25293  -25311       2   25278   25305  -25290  -25308       2
   25272   25296  -25281  -25299       2   25272   25284  -25275  -25287       2
   25467   25470  -25476  -25485       2   25461   25476  -25470  -25482       2
   25458   25476  -25467  -25479       2   25440   25470  -25461  -25473       2
   25428   25434  -25446  -25464       2   25422   25458  -25437  -25455       2
   25413   25446  -25434  -25452       2   25410   25446  -25428  -25449       2
   25404   25440  -25425  -25443       2   25392   25428  -25410  -25431       2
   25386   25422  -25401  -25419       2   25386   25413  -25398  -25416       2
   25380   25404  -25389  -25407       2   25380   25392  -25383  -25395       2
   25575   25578  -25584  -25593       2   25569   25584  -25578  -25590       2
   25566   25584  -25575  -25587       2   25548   25578  -25569  -25581       2
   25536   25542  -25554  -25572       2   25530   25566  -25545  -25563       2
   25521   25554  -25542  -25560       2   25518   25554  -25536  -25557       2
   25512   25548  -25533  -25551       2   25500   25536  -25518  -25539       2
   25494   25530  -25509  -25527       2   25494   25521  -25506  -25524       2
   25488   25512  -25497  -25515       2   25488   25500  -25491  -25503       2
   25683   25686  -25692  -25701       2   25677   25692  -25686  -25698       2
   25674   25692  -25683  -25695       2   25656   25686  -25677  -25689       2
   25644   25650  -25662  -25680       2   25638   25674  -25653  -25671       2
   25629   25662  -25650  -25668       2   25626   25662  -25644  -25665       2
   25620   25656  -25641  -25659       2   25608   25644  -25626  -25647       2
   25602   25638  -25617  -25635       2   25602   25629  -25614  -25632       2
   25596   25620  -25605  -25623       2   25596   25608  -25599  -25611       2
   25791   25794  -25800  -25809       2   25785   25800  -25794  -25806       2
   25782   25800  -25791  -25803       2   25764   25794  -25785  -25797       2
   25752   25758  -25770  -25788       2   25746   25782  -25761  -25779       2
   25737   25770  -25758  -25776       2   25734   25770  -25752  -25773       2
   25728   25764  -25749  -25767       2   25716   25752  -25734  -25755       2
   25710   25746  -25725  -25743       2   25710   25737  -25722  -25740       2
   25704   25728  -25713  -25731       2   25704   25716  -25707  -25719       2
   25899   25902  -25908  -25917       2   25893   25908  -25902  -25914       2
   25890   25908  -25899  -25911       2   25872   25902  -25893  -25905       2
   25860   25866  -25878  -25896       2   25854   25890  -25869  -25887       2
   25845   25878  -25866  -25884       2   25842   25878  -25860  -25881       2
   25836   25872  -25857  -25875       2   25824   25860  -25842  -25863       2
   25818   25854  -25833  -25851       2   25818   25845  -25830  -25848       2
   25812   25836  -25821  -25839       2   25812   25824  -25815  -25827       2
   26007   26010  -26016  -26025       2   26001   26016  -26010  -26022       2
   25998   26016  -26007  -26019       2   25980   26010  -26001  -26013       2
   25968   25974  -25986  -26004       2   25962   25998  -25977  -25995       2
   25953   25986  -25974  -25992       2   25950   25986  -25968  -25989       2
   25944   25980  -25965  -25983       2   25932   25968  -25950  -25971       2
   25926   25962  -25941  -25959       2   25926   25953  -25938  -25956       2
   25920   25944  -25929  -25947       2   25920   25932  -25923  -25935       2
   26115   26118  -26124  -26133       2   26109   26124  -26118  -26130       2
   26106   26124  -26115  -26127       2   26088   26118  -26109  -26121       2
   26076   26082  -26094  -26112       2   26070   26106  -26085  -26103       2
   26061   26094  -26082  -26100       2   26058   26094  -26076  -26097       2
   26052   26088  -26073  -26091       2   26040   26076  -26058  -26079       2
   26034   26070  -26049  -26067       2   26034   26061  -26046  -26064       2
   26028   26052  -26037  -26055       2   26028   26040  -26031  -26043       2
   26223   26226  -26232  -26241       2   26217   26232  -26226  -26238       2
   26214   26232  -26223  -26235       2   26196   26226  -26217  -26229       2
   26184   26190  -26202  -26220       2   26178   26214  -26193  -26211       2
   26169   26202  -26190  -26208       2   26166   26202  -26184  -26205       2
   26160   26196  -26181  -26199       2   26148   26184  -26166  -26187       2
   26142   26178  -26157  -26175       2   26142   26169  -26154  -26172       2
   26136   26160  -26145  -26163       2   26136   26148  -26139  -26151       2
   26331   26334  -26340  -26349       2   26325   26340  -26334  -26346       2
   26322   26340  -26331  -26343       2   26304   26334  -26325  -26337       2
   26292   26298  -26310  -26328       2   26286   26322  -26301  -26319       2
   26277   26310  -26298  -26316       2   26274   26310  -26292  -26313       2
   26268   26304  -26289  -26307       2   26256   26292  -26274  -26295       2
   26250   26286  -26265  -26283       2   26250   26277  -26262  -26280       2
   26244   26268  -26253  -26271       2   26244   26256  -26247  -26259       2
   26439   26442  -26448  -26457       2   26433   26448  -26442  -26454       2
   26430   26448  -26439  -26451       2   26412   26442  -26433  -26445       2
   26400   26406  -26418  -26436       2   26394   26430  -26409  -26427       2
   26385   26418  -26406  -26424       2   26382   26418  -26400  -26421       2
   26376   26412  -26397  -26415       2   26364   26400  -26382  -26403       2
   26358   26394  -26373  -26391       2   26358   26385  -26370  -26388       2
   26352   26376  -26361  -26379       2   26352   26364  -26355  -26367       2
   26547   26550  -26556  -26565       2   26541   26556  -26550  -26562       2
   26538   26556  -26547  -26559       2   26520   26550  -26541  -26553       2
   26508   26514  -26526  -26544       2   26502   26538  -26517  -26535       2
   26493   26526  -26514  -26532       2   26490   26526  -26508  -26529       2
   26484   26520  -26505  -26523       2   26472   26508  -26490  -26511       2
   26466   26502  -26481  -26499       2   26466   26493  -26478  -26496       2
   26460   26484  -26469  -26487       2   26460   26472  -26463  -26475       2
   26655   26658  -26664  -26673       2   26649   26664  -26658  -26670       2
   26646   26664  -26655  -26667       2   26628   26658  -26649  -26661       2
   26616   26622  -26634  -26652       2   26610   26646  -26625  -26643       2
   26601   26634  -26622  -26640       2   26598   26634  -26616  -26637       2
   26592   26628  -26613  -26631       2   26580   26616  -26598  -26619       2
   26574   26610  -26589  -26607       2   26574   26601  -26586  -26604       2
   26568   26592  -26577  -26595       2   26568   26580  -26571  -26583       2
   26763   26766  -26772  -26781       2   26757   26772  -26766  -26778       2
   26754   26772  -26763  -26775       2   26736   26766  -26757  -26769       2
   26724   26730  -26742  -26760       2   26718   26754  -26733  -26751       2
   26709   26742  -26730  -26748       2   26706   26742  -26724  -26745       2
   26700   26736  -26721  -26739       2   26688   26724  -26706  -26727       2
   26682   26718  -26697  -26715       2   26682   26709  -26694  -26712       2
   26676   26700  -26685  -26703       2   26676   26688  -26679  -26691       2
   26871   26874  -26880  -26889       2   26865   26880  -26874  -26886       2
   26862   26880  -26871  -26883       2   26844   26874  -26865  -26877       2
   26832   26838  -26850  -26868       2   26826   26862  -26841  -26859       2
   26817   26850  -26838  -26856       2   26814   26850  -26832  -26853       2
   26808   26844  -26829  -26847       2   26796   26832  -26814  -26835       2
   26790   26826  -26805  -26823       2   26790   26817  -26802  -26820       2
   26784   26808  -26793  -26811       2   26784   26796  -26787  -26799       2
   26979   26982  -26988  -26997       2   26973   26988  -26982  -26994       2
   26970   26988  -26979  -26991       2   26952   26982  -26973  -26985       2
   26940   26946  -26958  -26976       2   26934   26970  -26949  -26967       2
   26925   26958  -26946  -26964       2   26922   26958  -26940  -26961       2
   26916   26952  -26937  -26955       2   26904   26940  -26922  -26943       2
   26898   26934  -26913  -26931       2   26898   26925  -26910  -26928       2
   26892   26916  -26901  -26919       2   26892   26904  -26895  -26907       2
%FLAG DIHEDRALS_WITHOUT_HYDROGEN                                                
%FORMAT(10I8)                                                                   
      81      60      78      87       1      81      90     -96      87       1
      78      60      81      90       1      78      87     -96      90       1
      60      78      87      96       1      60      81     -90      96       1
      57      78      60      81       1      57      78      87      96       1
      45      24      42      57       1      45      60     -78      57       1
      45      60      78      87       1      45      60      81      90       1
      42      24      45      60       1      42      57     -78      60       1
      42      57      78      87       1      33      12      30      48       1
      33      54     -66      48       1      30      12      33      54       1
      30      48     -66      54       1      24      42      57      78       1
      24      45     -60      78       1      24      45      60      81       1
      21       6      18      33       1      21      42      24      45       1
      21      42      57      78       1      18       6      21      42       1
      18      33      12      30       1      18      33      54      66       1
      12      30      48      66       1      12      33     -54      66       1
       9       0       3      12       1       9       0       6      18       1
       9       0       6      21       1       9      24     -42      21       1
       9      24      42      57       1       9      24      45      60       1
       6       0       3      12       1       6       0       9      24       1
       6      18     -33      12       1       6      18      33      54       1
       6      21     -42      24       1       6      21      42      57       1
       3       0       6      18       1       3       0       6      21       1
       3       0       9      24       1       3      12      30      48       1
       3      12     -33      18       1       3      12      33      54       1
       0       3      12      30       1       0       3      12      33       1
       0       6     -18      33       1       0       6      21      42       1
       0       9     -24      42       1       0       9      24      45       1
     189     168     186     195       1     189     198    -204     195       1
     186     168     189     198       1     186     195    -204     198       1
     168     186     195     204       1     168     189    -198     204       1
     165     186     168     189       1     165     186     195     204       1
     153     132     150     165       1     153     168    -186     165       1
     153     168     186     195       1     153     168     189     198       1
     150     132     153     168       1     150     165    -186     168       1
     150     165     186     195       1     141     120     138     156       1
     141     162    -174     156       1     138     120     141     162       1
     138     156    -174     162       1     132     150     165     186       1
     132     153    -168     186       1     132     153     168     189       1
     129     114     126     141       1     129     150     132     153       1
     129     150     165     186       1     126     114     129     150       1
     126     141     120     138       1     126     141     162     174       1
     120     138     156     174       1     120     141    -162     174       1
     117     108     111     120       1     117     108     114     126       1
     117     108     114     129       1     117     132    -150     129       1
     117     132     150     165       1     117     132     153     168       1
     114     108     111     120       1     114     108     117     132       1
     114     126    -141     120       1     114     126     141     162       1
     114     129    -150     132       1     114     129     150     165       1
     111     108     114     126       1     111     108     114     129       1
     111     108     117     132       1     111     120     138     156       1
     111     120    -141     126       1     111     120     141     162       1
     108     111     120     138       1     108     111     120     141       1
     108     114    -126     141       1     108     114     129     150       1
     108     117    -132     150       1     108     117     132     153       1
     297     276     294     303       1     297     306    -312     303       1
     294     276     297     306       1     294     303    -312     306       1
     276     294     303     312       1     276     297    -306     312       1
     273     294     276     297       1     273     294     303     312       1
     261     240     258     273       1     261     276    -294     273       1
     261     276     294     303       1     261     276     297     306       1
     258     240     261     276       1     258     273    -294     276       1
     258     273     294     303       1     249     228     246     264       1
     249     270    -282     264       1     246     228     249     270       1
     246     264    -282     270       1     240     258     273     294       1
     240     261    -276     294       1     240     261     276     297       1
     237     222     234     249       1     237     258     240     261       1
     237     258     273     294       1     234     222     237     258       1
     234     249     228     246       1     234     249     270     282       1
     228     246     264     282       1     228     249    -270     282       1
     225     216     219     228       1     225     216     222     234       1
     225     216     222     237       1     225     240    -258     237       1
     225     240     258     273       1     225     240     261     276       1
     222     216     219     228       1     222     216     225     240       1
     222     234    -249     228       1     222     234     249     270       1
     222     237    -258     240       1     222     237     258     273       1
     219     216     222     234       1     219     216     222     237       1
     219     216     225     240       1     219     228     246     264       1
     219     228    -249     234       1     219     228     249     270       1
     216     219     228     246       1     216     219     228     249       1
     216     222    -234     249       1     216     222     237     258       1
     216     225    -240     258       1     216     225     240     261       1
     405     384     402     411       1     405     414    -420     411       1
     402     384     405     414       1     402     411    -420     414       1
     384     402     411     420       1     384     405    -414     420       1
     381     402     384     405       1     381     402     411     420       1
     369     348     366     381       1     369     384    -402     381       1
     369     384     402     411       1     369     384     405     414       1
     366     348     369     384       1     366     381    -402     384       1
     366     381     402     411       1     357     336     354     372       1
     357     378    -390     372       1     354     336     357     378       1
     354     372    -390     378       1     348     366     381     402       1
     348     369    -384     402       1     348     369     384     405       1
     345     330     342     357       1     345     366     348     369       1
     345     366     381     402       1     342     330     345     366       1
     342     357     336     354       1     342     357     378     390       1
     336     354     372     390       1     336     357    -378     390       1
     333     324     327     336       1     333     324     330     342       1
     333     324     330     345       1     333     348    -366     345       1
     333     348     366     381       1     333     348     369     384       1
     330     324     327     336       1     330     324     333     348       1
     330     342    -357     336       1     330     342     357     378       1
     330     345    -366     348       1     330     345     366     381       1
     327     324     330     342       1     327     324     330     345       1
     327     324     333     348       1     327     336     354     372       1
     327     336    -357     342       1     327     336     357     378       1
     324     327     336     354       1     324     327     336     357       1
     324     330    -342     357       1     324     330     345     366       1
     324     333    -348     366       1     324     333     348     369       1
     513     492     510     519       1     513     522    -528     519       1
     510     492     513     522       1     510     519    -528     522       1
     492     510     519     528       1     492     513    -522     528       1
     489     510     492     513       1     489     510     519     528       1
     477     456     474     489       1     477     492    -510     489       1
     477     492     510     519       1     477     492     513     522       1
     474     456     477     492       1     474     489    -510     492       1
     474     489     510     519       1     465     444     462     480       1
     465     486    -498     480       1     462     444     465     486       1
     462     480    -498     486       1     456     474     489     510       1
     456     477    -492     510       1     456     477     492     513       1
     453     438     450     465       1     453     474     456     477       1
     453     474     489     510       1     450     438     453     474       1
     450     465     444     462       1     450     465     486     498       1
     444     462     480     498       1     444     465    -486     498       1
     441     432     435     444       1     441     432     438     450       1
     441     432     438     453       1     441     456    -474     453       1
     441     456     474     489       1     441     456     477     492       1
     438     432     435     444       1     438     432     441     456       1
     438     450    -465     444       1     438     450     465     486       1
     438     453    -474     456       1     438     453     474     489       1
     435     432     438     450       1     435     432     438     453       1
     435     432     441     456       1     435     444     462     480       1
     435     444    -465     450       1     435     444     465     486       1
     432     435     444     462       1     432     435     444     465       1
     432     438    -450     465       1     432     438     453     474       1
     432     441    -456     474       1     432     441     456     477       1
     621     600     618     627       1     621     630    -636     627       1
     618     600     621     630       1     618     627    -636     630       1
     600     618     627     636       1     600     621    -630     636       1
     597     618     600     621       1     597     618     627     636       1
     585     564     582     597       1     585     600    -618     597       1
     585     600     618     627       1     585     600     621     630       1
     582     564     585     600       1     582     597    -618     600       1
     582     597     618     627       1     573     552     570     588       1
     573     594    -606     588       1     570     552     573     594       1
     570     588    -606     594       1     564     582     597     618       1
     564     585    -600     618       1     564     585     600     621       1
     561     546     558     573       1     561     582     564     585       1
     561     582     597     618       1     558     546     561     582       1
     558     573     552     570       1     558     573     594     606       1
     552     570     588     606       1     552     573    -594     606       1
     549     540     543     552       1     549     540     546     558       1
     549     540     546     561       1     549     564    -582     561       1
     549     564     582     597       1     549     564     585     600       1
     546     540     543     552       1     546     540     549     564       1
     546     558    -573     552       1     546     558     573     594       1
     546     561    -582     564       1     546     561     582     597       1
     543     540     546     558       1     543     540     546     561       1
     543     540     549     564       1     543     552     570     588       1
     543     552    -573     558       1     543     552     573     594       1
     540     543     552     570       1     540     543     552     573       1
     540     546    -558     573       1     540     546     561     582       1
     540     549    -564     582       1     540     549     564     585       1
     729     708     726     735       1     729     738    -744     735       1
     726     708     729     738       1     726     735    -744     738       1
     708     726     735     744       1     708     729    -738     744       1
     705     726     708     729       1     705     726     735     744       1
     693     672     690     705       1     693     708    -726     705       1
     693     708     726     735       1     693     708     729     738       1
     690     672     693     708       1     690     705    -726     708       1
     690     705     726     735       1     681     660     678     696       1
     681     702    -714     696       1     678     660     681     702       1
     678     696    -714     702       1     672     690     705     726       1
     672     693    -708     726       1     672     693     708     729       1
     669     654     666     681       1     669     690     672     693       1
     669     690     705     726       1     666     654     669     690       1
     666     681     660     678       1     666     681     702     714       1
     660     678     696     714       1     660     681    -702     714       1
     657     648     651     660       1     657     648     654     666       1
     657     648     654     669       1     657     672    -690     669       1
     657     672     690     705       1     657     672     693     708       1
     654     648     651     660       1     654     648     657     672       1
     654     666    -681     660       1     654     666     681     702       1
     654     669    -690     672       1     654     669     690     705       1
     651     648     654     666       1     651     648     654     669       1
     651     648     657     672       1     651     660     678     696       1
     651     660    -681     666       1     651     660     681     702       1
     648     651     660     678       1     648     651     660     681       1
     648     654    -666     681       1     648     654     669     690       1
     648     657    -672     690       1     648     657     672     693       1
     837     816     834     843       1     837     846    -852     843       1
     834     816     837     846       1     834     843    -852     846       1
     816     834     843     852       1     816     837    -846     852       1
     813     834     816     837       1     813     834     843     852       1
     801     780     798     813       1     801     816    -834     813       1
     801     816     834     843       1     801     816     837     846       1
     798     780     801     816       1     798     813    -834     816       1
     798     813     834     843       1     789     768     786     804       1
     789     810    -822     804       1     786     768     789     810       1
     786     804    -822     810       1     780     798     813     834       1
     780     801    -816     834       1     780     801     816     837       1
     777     762     774     789       1     777     798     780     801       1
     777     798     813     834       1     774     762     777     798       1
     774     789     768     786       1     774     789     810     822       1
     768     786     804     822       1     768     789    -810     822       1
     765     756     759     768       1     765     756     762     774       1
     765     756     762     777       1     765     780    -798     777       1
     765     780     798     813       1     765     780     801     816       1
     762     756     759     768       1     762     756     765     780       1
     762     774    -789     768       1     762     774     789     810       1
     762     777    -798     780       1     762     777     798     813       1
     759     756     762     774       1     759     756     762     777       1
     759     756     765     780       1     759     768     786     804       1
     759     768    -789     774       1     759     768     789     810       1
     756     759     768     786       1     756     759     768     789       1
     756     762    -774     789       1     756     762     777     798       1
     756     765    -780     798       1     756     765     780     801       1
     945     924     942     951       1     945     954    -960     951       1
     942     924     945     954       1     942     951    -960     954       1
     924     942     951     960       1     924     945    -954     960       1
     921     942     924     945       1     921     942     951     960       1
     909     888     906     921       1     909     924    -942     921       1
     909     924     942     951       1     909     924     945     954       1
     906     888     909     924       1     906     921    -942     924       1
     906     921     942     951       1     897     876     894     912       1
     897     918    -930     912       1     894     876     897     918       1
     894     912    -930     918       1     888     906     921     942       1
     888     909    -924     942       1     888     909     924     945       1
     885     870     882     897       1     885     906     888     909       1
     885     906     921     942       1     882     870     885     906       1
     882     897     876     894       1     882     897     918     930       1
     876     894     912     930       1     876     897    -918     930       1
     873     864     867     876       1     873     864     870     882       1
     873     864     870     885       1     873     888    -906     885       1
     873     888     906     921       1     873     888     909     924       1
     870     864     867     876       1     870     864     873     888       1
     870     882    -897     876       1     870     882     897     918       1
     870     885    -906     888       1     870     885     906     921       1
     867     864     870     882       1     867     864     870     885       1
     867     864     873     888       1     867     876     894     912       1
     867     876    -897     882       1     867     876     897     918       1
     864     867     876     894       1     864     867     876     897       1
     864     870    -882     897       1     864     870     885     906       1
     864     873    -888     906       1     864     873     888     909       1
    1053    1032    1050    1059       1    1053    1062   -1068    1059       1
    1050    1032    1053    1062       1    1050    1059   -1068    1062       1
    1032    1050    1059    1068       1    1032    1053   -1062    1068       1
    1029    1050    1032    1053       1    1029    1050    1059    1068       1
    1017     996    1014    1029       1    1017    1032   -1050    1029       1
    1017    1032    1050    1059       1    1017    1032    1053    1062       1
    1014     996    1017    1032       1    1014    1029   -1050    1032       1
    1014    1029    1050    1059       1    1005     984    1002    1020       1
    1005    1026   -1038    1020       1    1002     984    1005    1026       1
    1002    1020   -1038    1026       1     996    1014    1029    1050       1
     996    1017   -1032    1050       1     996    1017    1032    1053       1
     993     978     990    1005       1     993    1014     996    1017       1
     993    1014    1029    1050       1     990     978     993    1014       1
     990    1005     984    1002       1     990    1005    1026    1038       1
     984    1002    1020    1038       1     984    1005   -1026    1038       1
     981     972     975     984       1     981     972     978     990       1
     981     972     978     993       1     981     996   -1014     993       1
     981     996    1014    1029       1     981     996    1017    1032       1
     978     972     975     984       1     978     972     981     996       1
     978     990   -1005     984       1     978     990    1005    1026       1
     978     993   -1014     996       1     978     993    1014    1029       1
     975     972     978     990       1     975     972     978     993       1
     975     972     981     996       1     975     984    1002    1020       1
     975     984   -1005     990       1     975     984    1005    1026       1
     972     975     984    1002       1     972     975     984    1005       1
     972     978    -990    1005       1     972     978     993    1014       1
     972     981    -996    1014       1     972     981     996    1017       1
    1161    1140    1158    1167       1    1161    1170   -1176    1167       1
    1158    1140    1161    1170       1    1158    1167   -1176    1170       1
    1140    1158    1167    1176       1    1140    1161   -1170    1176       1
    1137    1158    1140    1161       1    1137    1158    1167    1176       1
    1125    1104    1122    1137       1    1125    1140   -1158    1137       1
    1125    1140    1158    1167       1    1125    1140    1161    1170       1
    1122    1104    1125    1140       1    1122    1137   -1158    1140       1
    1122    1137    1158    1167       1    1113    1092    1110    1128       1
    1113    1134   -1146    1128       1    1110    1092    1113    1134       1
    1110    1128   -1146    1134       1    1104    1122    1137    1158       1
    1104    1125   -1140    1158       1    1104    1125    1140    1161       1
    1101    1086    1098    1113       1    1101    1122    1104    1125       1
    1101    1122    1137    1158       1    1098    1086    1101    1122       1
    1098    1113    1092    1110       1    1098    1113    1134    1146       1
    1092    1110    1128    1146       1    1092    1113   -1134    1146       1
    1089    1080    1083    1092       1    1089    1080    1086    1098       1
    1089    1080    1086    1101       1    1089    1104   -1122    1101       1
    1089    1104    1122    1137       1    1089    1104    1125    1140       1
    1086    1080    1083    1092       1    1086    1080    1089    1104       1
    1086    1098   -1113    1092       1    1086    1098    1113    1134       1
    1086    1101   -1122    1104       1    1086    1101    1122    1137       1
    1083    1080    1086    1098       1    1083    1080    1086    1101       1
    1083    1080    1089    1104       1    1083    1092    1110    1128       1
    1083    1092   -1113    1098       1    1083    1092    1113    1134       1
    1080    1083    1092    1110       1    1080    1083    1092    1113       1
    1080    1086   -1098    1113       1    1080    1086    1101    1122       1
    1080    1089   -1104    1122       1    1080    1089    1104    1125       1
    1269    1248    1266    1275       1    1269    1278   -1284    1275       1
    1266    1248    1269    1278       1    1266    1275   -1284    1278       1
    1248    1266    1275    1284       1    1248    1269   -1278    1284       1
    1245    1266    1248    1269       1    1245    1266    1275    1284       1
    1233    1212    1230    1245       1    1233    1248   -1266    1245       1
    1233    1248    1266    1275       1    1233    1248    1269    1278       1
    1230    1212    1233    1248       1    1230    1245   -1266    1248       1
    1230    1245    1266    1275       1    1221    1200    1218    1236       1
    1221    1242   -1254    1236       1    1218    1200    1221    1242       1
    1218    1236   -1254    1242       1    1212    1230    1245    1266       1
    1212    1233   -1248    1266       1    1212    1233    1248    1269       1
    1209    1194    1206    1221       1    1209    1230    1212    1233       1
    1209    1230    1245    1266       1    1206    1194    1209    1230       1
    1206    1221    1200    1218       1    1206    1221    1242    1254       1
    1200    1218    1236    1254       1    1200    1221   -1242    1254       1
    1197    1188    1191    1200       1    1197    1188    1194    1206       1
    1197    1188    1194    1209       1    1197    1212   -1230    1209       1
    1197    1212    1230    1245       1    1197    1212    1233    1248       1
    1194    1188    1191    1200       1    1194    1188    1197    1212       1
    1194    1206   -1221    1200       1    1194    1206    1221    1242       1
    1194    1209   -1230    1212       1    1194    1209    1230    1245       1
    1191    1188    1194    1206       1    1191    1188    1194    1209       1
    1191    1188    1197    1212       1    1191    1200    1218    1236       1
    1191    1200   -1221    1206       1    1191    1200    1221    1242       1
    1188    1191    1200    1218       1    1188    1191    1200    1221       1
    1188    1194   -1206    1221       1    1188    1194    1209    1230       1
    1188    1197   -1212    1230       1    1188    1197    1212    1233       1
    1377    1356    1374    1383       1    1377    1386   -1392    1383       1
    1374    1356    1377    1386       1    1374    1383   -1392    1386       1
    1356    1374    1383    1392       1    1356    1377   -1386    1392       1
    1353    1374    1356    1377       1    1353    1374    1383    1392       1
    1341    1320    1338    1353       1    1341    1356   -1374    1353       1
    1341    1356    1374    1383       1    1341    1356    1377    1386       1
    1338    1320    1341    1356       1    1338    1353   -1374    1356       1
    1338    1353    1374    1383       1    1329    1308    1326    1344       1
    1329    1350   -1362    1344       1    1326    1308    1329    1350       1
    1326    1344   -1362    1350       1    1320    1338    1353    1374       1
    1320    1341   -1356    1374       1    1320    1341    1356    1377       1
    1317    1302    1314    1329       1    1317    1338    1320    1341       1
    1317    1338    1353    1374       1    1314    1302    1317    1338       1
    1314    1329    1308    1326       1    1314    1329    1350    1362       1
    1308    1326    1344    1362       1    1308    1329   -1350    1362       1
    1305    1296    1299    1308       1    1305    1296    1302    1314       1
    1305    1296    1302    1317       1    1305    1320   -1338    1317       1
    1305    1320    1338    1353       1    1305    1320    1341    1356       1
    1302    1296    1299    1308       1    1302    1296    1305    1320       1
    1302    1314   -1329    1308       1    1302    1314    1329    1350       1
    1302    1317   -1338    1320       1    1302    1317    1338    1353       1
    1299    1296    1302    1314       1    1299    1296    1302    1317       1
    1299    1296    1305    1320       1    1299    1308    1326    1344       1
    1299    1308   -1329    1314       1    1299    1308    1329    1350       1
    1296    1299    1308    1326       1    1296    1299    1308    1329       1
    1296    1302   -1314    1329       1    1296    1302    1317    1338       1
    1296    1305   -1320    1338       1    1296    1305    1320    1341       1
    1485    1464    1482    1491       1    1485    1494   -1500    1491       1
    1482    1464    1485    1494       1    1482    1491   -1500    1494       1
    1464    1482    1491    1500       1    1464    1485   -1494    1500       1
    1461    1482    1464    1485       1    1461    1482    1491    1500       1
    1449    1428    1446    1461       1    1449    1464   -1482    1461       1
    1449    1464    1482    1491       1    1449    1464    1485    1494       1
    1446    1428    1449    1464       1    1446    1461   -1482    1464       1
    1446    1461    1482    1491       1    1437    1416    1434    1452       1
    1437    1458   -1470    1452       1    1434    1416    1437    1458       1
    1434    1452   -1470    1458       1    1428    1446    1461    1482       1
    1428    1449   -1464    1482       1    1428    1449    1464    1485       1
    1425    1410    1422    1437       1    1425    1446    1428    1449       1
    1425    1446    1461    1482       1    1422    1410    1425    1446       1
    1422    1437    1416    1434       1    1422    1437    1458    1470       1
    1416    1434    1452    1470       1    1416    1437   -1458    1470       1
    1413    1404    1407    1416       1    1413    1404    1410    1422       1
    1413    1404    1410    1425       1    1413    1428   -1446    1425       1
    1413    1428    1446    1461       1    1413    1428    1449    1464       1
    1410    1404    1407    1416       1    1410    1404    1413    1428       1
    1410    1422   -1437    1416       1    1410    1422    1437    1458       1
    1410    1425   -1446    1428       1    1410    1425    1446    1461       1
    1407    1404    1410    1422       1    1407    1404    1410    1425       1
    1407    1404    1413    1428       1    1407    1416    1434    1452       1
    1407    1416   -1437    1422       1    1407    1416    1437    1458       1
    1404    1407    1416    1434       1    1404    1407    1416    1437       1
    1404    1410   -1422    1437       1    1404    1410    1425    1446       1
    1404    1413   -1428    1446       1    1404    1413    1428    1449       1
    1593    1572    1590    1599       1    1593    1602   -1608    1599       1
    1590    1572    1593    1602       1    1590    1599   -1608    1602       1
    1572    1590    1599    1608       1    1572    1593   -1602    1608       1
    1569    1590    1572    1593       1    1569    1590    1599    1608       1
    1557    1536    1554    1569       1    1557    1572   -1590    1569       1
    1557    1572    1590    1599       1    1557    1572    1593    1602       1
    1554    1536    1557    1572       1    1554    1569   -1590    1572       1
    1554    1569    1590    1599       1    1545    1524    1542    1560       1
    1545    1566   -1578    1560       1    1542    1524    1545    1566       1
    1542    1560   -1578    1566       1    1536    1554    1569    1590       1
    1536    1557   -1572    1590       1    1536    1557    1572    1593       1
    1533    1518    1530    1545       1    1533    1554    1536    1557       1
    1533    1554    1569    1590       1    1530    1518    1533    1554       1
    1530    1545    1524    1542       1    1530    1545    1566    1578       1
    1524    1542    1560    1578       1    1524    1545   -1566    1578       1
    1521    1512    1515    1524       1    1521    1512    1518    1530       1
    1521    1512    1518    1533       1    1521    1536   -1554    1533       1
    1521    1536    1554    1569       1    1521    1536    1557    1572       1
    1518    1512    1515    1524       1    1518    1512    1521    1536       1
    1518    1530   -1545    1524       1    1518    1530    1545    1566       1
    1518    1533   -1554    1536       1    1518    1533    1554    1569       1
    1515    1512    1518    1530       1    1515    1512    1518    1533       1
    1515    1512    1521    1536       1    1515    1524    1542    1560       1
    1515    1524   -1545    1530       1    1515    1524    1545    1566       1
    1512    1515    1524    1542       1    1512    1515    1524    1545       1
    1512    1518   -1530    1545       1    1512    1518    1533    1554       1
    1512    1521   -1536    1554       1    1512    1521    1536    1557       1
    1701    1680    1698    1707       1    1701    1710   -1716    1707       1
    1698    1680    1701    1710       1    1698    1707   -1716    1710       1
    1680    1698    1707    1716       1    1680    1701   -1710    1716       1
    1677    1698    1680    1701       1    1677    1698    1707    1716       1
    1665    1644    1662    1677       1    1665    1680   -1698    1677       1
    1665    1680    1698    1707       1    1665    1680    1701    1710       1
    1662    1644    1665    1680       1    1662    1677   -1698    1680       1
    1662    1677    1698    1707       1    1653    1632    1650    1668       1
    1653    1674   -1686    1668       1    1650    1632    1653    1674       1
    1650    1668   -1686    1674       1    1644    1662    1677    1698       1
    1644    1665   -1680    1698       1    1644    1665    1680    1701       1
    1641    1626    1638    1653       1    1641    1662    1644    1665       1
    1641    1662    1677    1698       1    1638    1626    1641    1662       1
    1638    1653    1632    1650       1    1638    1653    1674    1686       1
    1632    1650    1668    1686       1    1632    1653   -1674    1686       1
    1629    1620    1623    1632       1    1629    1620    1626    1638       1
    1629    1620    1626    1641       1    1629    1644   -1662    1641       1
    1629    1644    1662    1677       1    1629    1644    1665    1680       1
    1626    1620    1623    1632       1    1626    1620    1629    1644       1
    1626    1638   -1653    1632       1    1626    1638    1653    1674       1
    1626    1641   -1662    1644       1    1626    1641    1662    1677       1
    1623    1620    1626    1638       1    1623    1620    1626    1641       1
    1623    1620    1629    1644       1    1623    1632    1650    1668       1
    1623    1632   -1653    1638       1    1623    1632    1653    1674       1
    1620    1623    1632    1650       1    1620    1623    1632    1653       1
    1620    1626   -1638    1653       1    1620    1626    1641    1662       1
    1620    1629   -1644    1662       1    1620    1629    1644    1665       1
    1809    1788    1806    1815       1    1809    1818   -1824    1815       1
    1806    1788    1809    1818       1    1806    1815   -1824    1818       1
    1788    1806    1815    1824       1    1788    1809   -1818    1824       1
    1785    1806    1788    1809       1    1785    1806    1815    1824       1
    1773    1752    1770    1785       1    1773    1788   -1806    1785       1
    1773    1788    1806    1815       1    1773    1788    1809    1818       1
    1770    1752    1773    1788       1    1770    1785   -1806    1788       1
    1770    1785    1806    1815       1    1761    1740    1758    1776       1
    1761    1782   -1794    1776       1    1758    1740    1761    1782       1
    1758    1776   -1794    1782       1    1752    1770    1785    1806       1
    1752    1773   -1788    1806       1    1752    1773    1788    1809       1
    1749    1734    1746    1761       1    1749    1770    1752    1773       1
    1749    1770    1785    1806       1    1746    1734    1749    1770       1
    1746    1761    1740    1758       1    1746    1761    1782    1794       1
    1740    1758    1776    1794       1    1740    1761   -1782    1794       1
    1737    1728    1731    1740       1    1737    1728    1734    1746       1
    1737    1728    1734    1749       1    1737    1752   -1770    1749       1
    1737    1752    1770    1785       1    1737    1752    1773    1788       1
    1734    1728    1731    1740       1    1734    1728    1737    1752       1
    1734    1746   -1761    1740       1    1734    1746    1761    1782       1
    1734    1749   -1770    1752       1    1734    1749    1770    1785       1
    1731    1728    1734    1746       1    1731    1728    1734    1749       1
    1731    1728    1737    1752       1    1731    1740    1758    1776       1
    1731    1740   -1761    1746       1    1731    1740    1761    1782       1
    1728    1731    1740    1758       1    1728    1731    1740    1761       1
    1728    1734   -1746    1761       1    1728    1734    1749    1770       1
    1728    1737   -1752    1770       1    1728    1737    1752    1773       1
    1917    1896    1914    1923       1    1917    1926   -1932    1923       1
    1914    1896    1917    1926       1    1914    1923   -1932    1926       1
    1896    1914    1923    1932       1    1896    1917   -1926    1932       1
    1893    1914    1896    1917       1    1893    1914    1923    1932       1
    1881    1860    1878    1893       1    1881    1896   -1914    1893       1
    1881    1896    1914    1923       1    1881    1896    1917    1926       1
    1878    1860    1881    1896       1    1878    1893   -1914    1896       1
    1878    1893    1914    1923       1    1869    1848    1866    1884       1
    1869    1890   -1902    1884       1    1866    1848    1869    1890       1
    1866    1884   -1902    1890       1    1860    1878    1893    1914       1
    1860    1881   -1896    1914       1    1860    1881    1896    1917       1
    1857    1842    1854    1869       1    1857    1878    1860    1881       1
    1857    1878    1893    1914       1    1854    1842    1857    1878       1
    1854    1869    1848    1866       1    1854    1869    1890    1902       1
    1848    1866    1884    1902       1    1848    1869   -1890    1902       1
    1845    1836    1839    1848       1    1845    1836    1842    1854       1
    1845    1836    1842    1857       1    1845    1860   -1878    1857       1
    1845    1860    1878    1893       1    1845    1860    1881    1896       1
    1842    1836    1839    1848       1    1842    1836    1845    1860       1
    1842    1854   -1869    1848       1    1842    1854    1869    1890       1
    1842    1857   -1878    1860       1    1842    1857    1878    1893       1
    1839    1836    1842    1854       1    1839    1836    1842    1857       1
    1839    1836    1845    1860       1    1839    1848    1866    1884       1
    1839    1848   -1869    1854       1    1839    1848    1869    1890       1
    1836    1839    1848    1866       1    1836    1839    1848    1869       1
    1836    1842   -1854    1869       1    1836    1842    1857    1878       1
    1836    1845   -1860    1878       1    1836    1845    1860    1881       1
    2025    2004    2022    2031       1    2025    2034   -2040    2031       1
    2022    2004    2025    2034       1    2022    2031   -2040    2034       1
    2004    2022    2031    2040       1    2004    2025   -2034    2040       1
    2001    2022    2004    2025       1    2001    2022    2031    2040       1
    1989    1968    1986    2001       1    1989    2004   -2022    2001       1
    1989    2004    2022    2031       1    1989    2004    2025    2034       1
    1986    1968    1989    2004       1    1986    2001   -2022    2004       1
    1986    2001    2022    2031       1    1977    1956    1974    1992       1
    1977    1998   -2010    1992       1    1974    1956    1977    1998       1
    1974    1992   -2010    1998       1    1968    1986    2001    2022       1
    1968    1989   -2004    2022       1    1968    1989    2004    2025       1
    1965    1950    1962    1977       1    1965    1986    1968    1989       1
    1965    1986    2001    2022       1    1962    1950    1965    1986       1
    1962    1977    1956    1974       1    1962    1977    1998    2010       1
    1956    1974    1992    2010       1    1956    1977   -1998    2010       1
    1953    1944    1947    1956       1    1953    1944    1950    1962       1
    1953    1944    1950    1965       1    1953    1968   -1986    1965       1
    1953    1968    1986    2001       1    1953    1968    1989    2004       1
    1950    1944    1947    1956       1    1950    1944    1953    1968       1
    1950    1962   -1977    1956       1    1950    1962    1977    1998       1
    1950    1965   -1986    1968       1    1950    1965    1986    2001       1
    1947    1944    1950    1962       1    1947    1944    1950    1965       1
    1947    1944    1953    1968       1    1947    1956    1974    1992       1
    1947    1956   -1977    1962       1    1947    1956    1977    1998       1
    1944    1947    1956    1974       1    1944    1947    1956    1977       1
    1944    1950   -1962    1977       1    1944    1950    1965    1986       1
    1944    1953   -1968    1986       1    1944    1953    1968    1989       1
    2133    2112    2130    2139       1    2133    2142   -2148    2139       1
    2130    2112    2133    2142       1    2130    2139   -2148    2142       1
    2112    2130    2139    2148       1    2112    2133   -2142    2148       1
    2109    2130    2112    2133       1    2109    2130    2139    2148       1
    2097    2076    2094    2109       1    2097    2112   -2130    2109       1
    2097    2112    2130    2139       1    2097    2112    2133    2142       1
    2094    2076    2097    2112       1    2094    2109   -2130    2112       1
    2094    2109    2130    2139       1    2085    2064    2082    2100       1
    2085    2106   -2118    2100       1    2082    2064    2085    2106       1
    2082    2100   -2118    2106       1    2076    2094    2109    2130       1
    2076    2097   -2112    2130       1    2076    2097    2112    2133       1
    2073    2058    2070    2085       1    2073    2094    2076    2097       1
    2073    2094    2109    2130       1    2070    2058    2073    2094       1
    2070    2085    2064    2082       1    2070    2085    2106    2118       1
    2064    2082    2100    2118       1    2064    2085   -2106    2118       1
    2061    2052    2055    2064       1    2061    2052    2058    2070       1
    2061    2052    2058    2073       1    2061    2076   -2094    2073       1
    2061    2076    2094    2109       1    2061    2076    2097    2112       1
    2058    2052    2055    2064       1    2058    2052    2061    2076       1
    2058    2070   -2085    2064       1    2058    2070    2085    2106       1
    2058    2073   -2094    2076       1    2058    2073    2094    2109       1
    2055    2052    2058    2070       1    2055    2052    2058    2073       1
    2055    2052    2061    2076       1    2055    2064    2082    2100       1
    2055    2064   -2085    2070       1    2055    2064    2085    2106       1
    2052    2055    2064    2082       1    2052    2055    2064    2085       1
    2052    2058   -2070    2085       1    2052    2058    2073    2094       1
    2052    2061   -2076    2094       1    2052    2061    2076    2097       1
    2241    2220    2238    2247       1    2241    2250   -2256    2247       1
    2238    2220    2241    2250       1    2238    2247   -2256    2250       1
    2220    2238    2247    2256       1    2220    2241   -2250    2256       1
    2217    2238    2220    2241       1    2217    2238    2247    2256       1
    2205    2184    2202    2217       1    2205    2220   -2238    2217       1
    2205    2220    2238    2247       1    2205    2220    2241    2250       1
    2202    2184    2205    2220       1    2202    2217   -2238    2220       1
    2202    2217    2238    2247       1    2193    2172    2190    2208       1
    2193    2214   -2226    2208       1    2190    2172    2193    2214       1
    2190    2208   -2226    2214       1    2184    2202    2217    2238       1
    2184    2205   -2220    2238       1    2184    2205    2220    2241       1
    2181    2166    2178    2193       1    2181    2202    2184    2205       1
    2181    2202    2217    2238       1    2178    2166    2181    2202       1
    2178    2193    2172    2190       1    2178    2193    2214    2226       1
    2172    2190    2208    2226       1    2172    2193   -2214    2226       1
    2169    2160    2163    2172       1    2169    2160    2166    2178       1
    2169    2160    2166    2181       1    2169    2184   -2202    2181       1
    2169    2184    2202    2217       1    2169    2184    2205    2220       1
    2166    2160    2163    2172       1    2166    2160    2169    2184       1
    2166    2178   -2193    2172       1    2166    2178    2193    2214       1
    2166    2181   -2202    2184       1    2166    2181    2202    2217       1
    2163    2160    2166    2178       1    2163    2160    2166    2181       1
    2163    2160    2169    2184       1    2163    2172    2190    2208       1
    2163    2172   -2193    2178       1    2163    2172    2193    2214       1
    2160    2163    2172    2190       1    2160    2163    2172    2193       1
    2160    2166   -2178    2193       1    2160    2166    2181    2202       1
    2160    2169   -2184    2202       1    2160    2169    2184    2205       1
    2349    2328    2346    2355       1    2349    2358   -2364    2355       1
    2346    2328    2349    2358       1    2346    2355   -2364    2358       1
    2328    2346    2355    2364       1    2328    2349   -2358    2364       1
    2325    2346    2328    2349       1    2325    2346    2355    2364       1
    2313    2292    2310    2325       1    2313    2328   -2346    2325       1
    2313    2328    2346    2355       1    2313    2328    2349    2358       1
    2310    2292    2313    2328       1    2310    2325   -2346    2328       1
    2310    2325    2346    2355       1    2301    2280    2298    2316       1
    2301    2322   -2334    2316       1    2298    2280    2301    2322       1
    2298    2316   -2334    2322       1    2292    2310    2325    2346       1
    2292    2313   -2328    2346       1    2292    2313    2328    2349       1
    2289    2274    2286    2301       1    2289    2310    2292    2313       1
    2289    2310    2325    2346       1    2286    2274    2289    2310       1
    2286    2301    2280    2298       1    2286    2301    2322    2334       1
    2280    2298    2316    2334       1    2280    2301   -2322    2334       1
    2277    2268    2271    2280       1    2277    2268    2274    2286       1
    2277    2268    2274    2289       1    2277    2292   -2310    2289       1
    2277    2292    2310    2325       1    2277    2292    2313    2328       1
    2274    2268    2271    2280       1    2274    2268    2277    2292       1
    2274    2286   -2301    2280       1    2274    2286    2301    2322       1
    2274    2289   -2310    2292       1    2274    2289    2310    2325       1
    2271    2268    2274    2286       1    2271    2268    2274    2289       1
    2271    2268    2277    2292       1    2271    2280    2298    2316       1
    2271    2280   -2301    2286       1    2271    2280    2301    2322       1
    2268    2271    2280    2298       1    2268    2271    2280    2301       1
    2268    2274   -2286    2301       1    2268    2274    2289    2310       1
    2268    2277   -2292    2310       1    2268    2277    2292    2313       1
    2457    2436    2454    2463       1    2457    2466   -2472    2463       1
    2454    2436    2457    2466       1    2454    2463   -2472    2466       1
    2436    2454    2463    2472       1    2436    2457   -2466    2472       1
    2433    2454    2436    2457       1    2433    2454    2463    2472       1
    2421    2400    2418    2433       1    2421    2436   -2454    2433       1
    2421    2436    2454    2463       1    2421    2436    2457    2466       1
    2418    2400    2421    2436       1    2418    2433   -2454    2436       1
    2418    2433    2454    2463       1    2409    2388    2406    2424       1
    2409    2430   -2442    2424       1    2406    2388    2409    2430       1
    2406    2424   -2442    2430       1    2400    2418    2433    2454       1
    2400    2421   -2436    2454       1    2400    2421    2436    2457       1
    2397    2382    2394    2409       1    2397    2418    2400    2421       1
    2397    2418    2433    2454       1    2394    2382    2397    2418       1
    2394    2409    2388    2406       1    2394    2409    2430    2442       1
    2388    2406    2424    2442       1    2388    2409   -2430    2442       1
    2385    2376    2379    2388       1    2385    2376    2382    2394       1
    2385    2376    2382    2397       1    2385    2400   -2418    2397       1
    2385    2400    2418    2433       1    2385    2400    2421    2436       1
    2382    2376    2379    2388       1    2382    2376    2385    2400       1
    2382    2394   -2409    2388       1    2382    2394    2409    2430       1
    2382    2397   -2418    2400       1    2382    2397    2418    2433       1
    2379    2376    2382    2394       1    2379    2376    2382    2397       1
    2379    2376    2385    2400       1    2379    2388    2406    2424       1
    2379    2388   -2409    2394       1    2379    2388    2409    2430       1
    2376    2379    2388    2406       1    2376    2379    2388    2409       1
    2376    2382   -2394    2409       1    2376    2382    2397    2418       1
    2376    2385   -2400    2418       1    2376    2385    2400    2421       1
    2565    2544    2562    2571       1    2565    2574   -2580    2571       1
    2562    2544    2565    2574       1    2562    2571   -2580    2574       1
    2544    2562    2571    2580       1    2544    2565   -2574    2580       1
    2541    2562    2544    2565       1    2541    2562    2571    2580       1
    2529    2508    2526    2541       1    2529    2544   -2562    2541       1
    2529    2544    2562    2571       1    2529    2544    2565    2574       1
    2526    2508    2529    2544       1    2526    2541   -2562    2544       1
    2526    2541    2562    2571       1    2517    2496    2514    2532       1
    2517    2538   -2550    2532       1    2514    2496    2517    2538       1
    2514    2532   -2550    2538       1    2508    2526    2541    2562       1
    2508    2529   -2544    2562       1    2508    2529    2544    2565       1
    2505    2490    2502    2517       1    2505    2526    2508    2529       1
    2505    2526    2541    2562       1    2502    2490    2505    2526       1
    2502    2517    2496    2514       1    2502    2517    2538    2550       1
    2496    2514    2532    2550       1    2496    2517   -2538    2550       1
    2493    2484    2487    2496       1    2493    2484    2490    2502       1
    2493    2484    2490    2505       1    2493    2508   -2526    2505       1
    2493    2508    2526    2541       1    2493    2508    2529    2544       1
    2490    2484    2487    2496       1    2490    2484    2493    2508       1
    2490    2502   -2517    2496       1    2490    2502    2517    2538       1
    2490    2505   -2526    2508       1    2490    2505    2526    2541       1
    2487    2484    2490    2502       1    2487    2484    2490    2505       1
    2487    2484    2493    2508       1    2487    2496    2514    2532       1
    2487    2496   -2517    2502       1    2487    2496    2517    2538       1
    2484    2487    2496    2514       1    2484    2487    2496    2517       1
    2484    2490   -2502    2517       1    2484    2490    2505    2526       1
    2484    2493   -2508    2526       1    2484    2493    2508    2529       1
    2673    2652    2670    2679       1    2673    2682   -2688    2679       1
    2670    2652    2673    2682       1    2670    2679   -2688    2682       1
    2652    2670    2679    2688       1    2652    2673   -2682    2688       1
    2649    2670    2652    2673       1    2649    2670    2679    2688       1
    2637    2616    2634    2649       1    2637    2652   -2670    2649       1
    2637    2652    2670    2679       1    2637    2652    2673    2682       1
    2634    2616    2637    2652       1    2634    2649   -2670    2652       1
    2634    2649    2670    2679       1    2625    2604    2622    2640       1
    2625    2646   -2658    2640       1    2622    2604    2625    2646       1
    2622    2640   -2658    2646       1    2616    2634    2649    2670       1
    2616    2637   -2652    2670       1    2616    2637    2652    2673       1
    2613    2598    2610    2625       1    2613    2634    2616    2637       1
    2613    2634    2649    2670       1    2610    2598    2613    2634       1
    2610    2625    2604    2622       1    2610    2625    2646    2658       1
    2604    2622    2640    2658       1    2604    2625   -2646    2658       1
    2601    2592    2595    2604       1    2601    2592    2598    2610       1
    2601    2592    2598    2613       1    2601    2616   -2634    2613       1
    2601    2616    2634    2649       1    2601    2616    2637    2652       1
    2598    2592    2595    2604       1    2598    2592    2601    2616       1
    2598    2610   -2625    2604       1    2598    2610    2625    2646       1
    2598    2613   -2634    2616       1    2598    2613    2634    2649       1
    2595    2592    2598    2610       1    2595    2592    2598    2613       1
    2595    2592    2601    2616       1    2595    2604    2622    2640       1
    2595    2604   -2625    2610       1    2595    2604    2625    2646       1
    2592    2595    2604    2622       1    2592    2595    2604    2625       1
    2592    2598   -2610    2625       1    2592    2598    2613    2634       1
    2592    2601   -2616    2634       1    2592    2601    2616    2637       1
    2781    2760    2778    2787       1    2781    2790   -2796    2787       1
    2778    2760    2781    2790       1    2778    2787   -2796    2790       1
    2760    2778    2787    2796       1    2760    2781   -2790    2796       1
    2757    2778    2760    2781       1    2757    2778    2787    2796       1
    2745    2724    2742    2757       1    2745    2760   -2778    2757       1
    2745    2760    2778    2787       1    2745    2760    2781    2790       1
    2742    2724    2745    2760       1    2742    2757   -2778    2760       1
    2742    2757    2778    2787       1    2733    2712    2730    2748       1
    2733    2754   -2766    2748       1    2730    2712    2733    2754       1
    2730    2748   -2766    2754       1    2724    2742    2757    2778       1
    2724    2745   -2760    2778       1    2724    2745    2760    2781       1
    2721    2706    2718    2733       1    2721    2742    2724    2745       1
    2721    2742    2757    2778       1    2718    2706    2721    2742       1
    2718    2733    2712    2730       1    2718    2733    2754    2766       1
    2712    2730    2748    2766       1    2712    2733   -2754    2766       1
    2709    2700    2703    2712       1    2709    2700    2706    2718       1
    2709    2700    2706    2721       1    2709    2724   -2742    2721       1
    2709    2724    2742    2757       1    2709    2724    2745    2760       1
    2706    2700    2703    2712       1    2706    2700    2709    2724       1
    2706    2718   -2733    2712       1    2706    2718    2733    2754       1
    2706    2721   -2742    2724       1    2706    2721    2742    2757       1
    2703    2700    2706    2718       1    2703    2700    2706    2721       1
    2703    2700    2709    2724       1    2703    2712    2730    2748       1
    2703    2712   -2733    2718       1    2703    2712    2733    2754       1
    2700    2703    2712    2730       1    2700    2703    2712    2733       1
    2700    2706   -2718    2733       1    2700    2706    2721    2742       1
    2700    2709   -2724    2742       1    2700    2709    2724    2745       1
    2889    2868    2886    2895       1    2889    2898   -2904    2895       1
    2886    2868    2889    2898       1    2886    2895   -2904    2898       1
    2868    2886    2895    2904       1    2868    2889   -2898    2904       1
    2865    2886    2868    2889       1    2865    2886    2895    2904       1
    2853    2832    2850    2865       1    2853    2868   -2886    2865       1
    2853    2868    2886    2895       1    2853    2868    2889    2898       1
    2850    2832    2853    2868       1    2850    2865   -2886    2868       1
    2850    2865    2886    2895       1    2841    2820    2838    2856       1
    2841    2862   -2874    2856       1    2838    2820    2841    2862       1
    2838    2856   -2874    2862       1    2832    2850    2865    2886       1
    2832    2853   -2868    2886       1    2832    2853    2868    2889       1
    2829    2814    2826    2841       1    2829    2850    2832    2853       1
    2829    2850    2865    2886       1    2826    2814    2829    2850       1
    2826    2841    2820    2838       1    2826    2841    2862    2874       1
    2820    2838    2856    2874       1    2820    2841   -2862    2874       1
    2817    2808    2811    2820       1    2817    2808    2814    2826       1
    2817    2808    2814    2829       1    2817    2832   -2850    2829       1
    2817    2832    2850    2865       1    2817    2832    2853    2868       1
    2814    2808    2811    2820       1    2814    2808    2817    2832       1
    2814    2826   -2841    2820       1    2814    2826    2841    2862       1
    2814    2829   -2850    2832       1    2814    2829    2850    2865       1
    2811    2808    2814    2826       1    2811    2808    2814    2829       1
    2811    2808    2817    2832       1    2811    2820    2838    2856       1
    2811    2820   -2841    2826       1    2811    2820    2841    2862       1
    2808    2811    2820    2838       1    2808    2811    2820    2841       1
    2808    2814   -2826    2841       1    2808    2814    2829    2850       1
    2808    2817   -2832    2850       1    2808    2817    2832    2853       1
    2997    2976    2994    3003       1    2997    3006   -3012    3003       1
    2994    2976    2997    3006       1    2994    3003   -3012    3006       1
    2976    2994    3003    3012       1    2976    2997   -3006    3012       1
    2973    2994    2976    2997       1    2973    2994    3003    3012       1
    2961    2940    2958    2973       1    2961    2976   -2994    2973       1
    2961    2976    2994    3003       1    2961    2976    2997    3006       1
    2958    2940    2961    2976       1    2958    2973   -2994    2976       1
    2958    2973    2994    3003       1    2949    2928    2946    2964       1
    2949    2970   -2982    2964       1    2946    2928    2949    2970       1
    2946    2964   -2982    2970       1    2940    2958    2973    2994       1
    2940    2961   -2976    2994       1    2940    2961    2976    2997       1
    2937    2922    2934    2949       1    2937    2958    2940    2961       1
    2937    2958    2973    2994       1    2934    2922    2937    2958       1
    2934    2949    2928    2946       1    2934    2949    2970    2982       1
    2928    2946    2964    2982       1    2928    2949   -2970    2982       1
    2925    2916    2919    2928       1    2925    2916    2922    2934       1
    2925    2916    2922    2937       1    2925    2940   -2958    2937       1
    2925    2940    2958    2973       1    2925    2940    2961    2976       1
    2922    2916    2919    2928       1    2922    2916    2925    2940       1
    2922    2934   -2949    2928       1    2922    2934    2949    2970       1
    2922    2937   -2958    2940       1    2922    2937    2958    2973       1
    2919    2916    2922    2934       1    2919    2916    2922    2937       1
    2919    2916    2925    2940       1    2919    2928    2946    2964       1
    2919    2928   -2949    2934       1    2919    2928    2949    2970       1
    2916    2919    2928    2946       1    2916    2919    2928    2949       1
    2916    2922   -2934    2949       1    2916    2922    2937    2958       1
    2916    2925   -2940    2958       1    2916    2925    2940    2961       1
    3105    3084    3102    3111       1    3105    3114   -3120    3111       1
    3102    3084    3105    3114       1    3102    3111   -3120    3114       1
    3084    3102    3111    3120       1    3084    3105   -3114    3120       1
    3081    3102    3084    3105       1    3081    3102    3111    3120       1
    3069    3048    3066    3081       1    3069    3084   -3102    3081       1
    3069    3084    3102    3111       1    3069    3084    3105    3114       1
    3066    3048    3069    3084       1    3066    3081   -3102    3084       1
    3066    3081    3102    3111       1    3057    3036    3054    3072       1
    3057    3078   -3090    3072       1    3054    3036    3057    3078       1
    3054    3072   -3090    3078       1    3048    3066    3081    3102       1
    3048    3069   -3084    3102       1    3048    3069    3084    3105       1
    3045    3030    3042    3057       1    3045    3066    3048    3069       1
    3045    3066    3081    3102       1    3042    3030    3045    3066       1
    3042    3057    3036    3054       1    3042    3057    3078    3090       1
    3036    3054    3072    3090       1    3036    3057   -3078    3090       1
    3033    3024    3027    3036       1    3033    3024    3030    3042       1
    3033    3024    3030    3045       1    3033    3048   -3066    3045       1
    3033    3048    3066    3081       1    3033    3048    3069    3084       1
    3030    3024    3027    3036       1    3030    3024    3033    3048       1
    3030    3042   -3057    3036       1    3030    3042    3057    3078       1
    3030    3045   -3066    3048       1    3030    3045    3066    3081       1
    3027    3024    3030    3042       1    3027    3024    3030    3045       1
    3027    3024    3033    3048       1    3027    3036    3054    3072       1
    3027    3036   -3057    3042       1    3027    3036    3057    3078       1
    3024    3027    3036    3054       1    3024    3027    3036    3057       1
    3024    3030   -3042    3057       1    3024    3030    3045    3066       1
    3024    3033   -3048    3066       1    3024    3033    3048    3069       1
    3213    3192    3210    3219       1    3213    3222   -3228    3219       1
    3210    3192    3213    3222       1    3210    3219   -3228    3222       1
    3192    3210    3219    3228       1    3192    3213   -3222    3228       1
    3189    3210    3192    3213       1    3189    3210    3219    3228       1
    3177    3156    3174    3189       1    3177    3192   -3210    3189       1
    3177    3192    3210    3219       1    3177    3192    3213    3222       1
    3174    3156    3177    3192       1    3174    3189   -3210    3192       1
    3174    3189    3210    3219       1    3165    3144    3162    3180       1
    3165    3186   -3198    3180       1    3162    3144    3165    3186       1
    3162    3180   -3198    3186       1    3156    3174    3189    3210       1
    3156    3177   -3192    3210       1    3156    3177    3192    3213       1
    3153    3138    3150    3165       1    3153    3174    3156    3177       1
    3153    3174    3189    3210       1    3150    3138    3153    3174       1
    3150    3165    3144    3162       1    3150    3165    3186    3198       1
    3144    3162    3180    3198       1    3144    3165   -3186    3198       1
    3141    3132    3135    3144       1    3141    3132    3138    3150       1
    3141    3132    3138    3153       1    3141    3156   -3174    3153       1
    3141    3156    3174    3189       1    3141    3156    3177    3192       1
    3138    3132    3135    3144       1    3138    3132    3141    3156       1
    3138    3150   -3165    3144       1    3138    3150    3165    3186       1
    3138    3153   -3174    3156       1    3138    3153    3174    3189       1
    3135    3132    3138    3150       1    3135    3132    3138    3153       1
    3135    3132    3141    3156       1    3135    3144    3162    3180       1
    3135    3144   -3165    3150       1    3135    3144    3165    3186       1
    3132    3135    3144    3162       1    3132    3135    3144    3165       1
    3132    3138   -3150    3165       1    3132    3138    3153    3174       1
    3132    3141   -3156    3174       1    3132    3141    3156    3177       1
    3321    3300    3318    3327       1    3321    3330   -3336    3327       1
    3318    3300    3321    3330       1    3318    3327   -3336    3330       1
    3300    3318    3327    3336       1    3300    3321   -3330    3336       1
    3297    3318    3300    3321       1    3297    3318    3327    3336       1
    3285    3264    3282    3297       1    3285    3300   -3318    3297       1
    3285    3300    3318    3327       1    3285    3300    3321    3330       1
    3282    3264    3285    3300       1    3282    3297   -3318    3300       1
    3282    3297    3318    3327       1    3273    3252    3270    3288       1
    3273    3294   -3306    3288       1    3270    3252    3273    3294       1
    3270    3288   -3306    3294       1    3264    3282    3297    3318       1
    3264    3285   -3300    3318       1    3264    3285    3300    3321       1
    3261    3246    3258    3273       1    3261    3282    3264    3285       1
    3261    3282    3297    3318       1    3258    3246    3261    3282       1
    3258    3273    3252    3270       1    3258    3273    3294    3306       1
    3252    3270    3288    3306       1    3252    3273   -3294    3306       1
    3249    3240    3243    3252       1    3249    3240    3246    3258       1
    3249    3240    3246    3261       1    3249    3264   -3282    3261       1
    3249    3264    3282    3297       1    3249    3264    3285    3300       1
    3246    3240    3243    3252       1    3246    3240    3249    3264       1
    3246    3258   -3273    3252       1    3246    3258    3273    3294       1
    3246    3261   -3282    3264       1    3246    3261    3282    3297       1
    3243    3240    3246    3258       1    3243    3240    3246    3261       1
    3243    3240    3249    3264       1    3243    3252    3270    3288       1
    3243    3252   -3273    3258       1    3243    3252    3273    3294       1
    3240    3243    3252    3270       1    3240    3243    3252    3273       1
    3240    3246   -3258    3273       1    3240    3246    3261    3282       1
    3240    3249   -3264    3282       1    3240    3249    3264    3285       1
    3429    3408    3426    3435       1    3429    3438   -3444    3435       1
    3426    3408    3429    3438       1    3426    3435   -3444    3438       1
    3408    3426    3435    3444       1    3408    3429   -3438    3444       1
    3405    3426    3408    3429       1    3405    3426    3435    3444       1
    3393    3372    3390    3405       1    3393    3408   -3426    3405       1
    3393    3408    3426    3435       1    3393    3408    3429    3438       1
    3390    3372    3393    3408       1    3390    3405   -3426    3408       1
    3390    3405    3426    3435       1    3381    3360    3378    3396       1
    3381    3402   -3414    3396       1    3378    3360    3381    3402       1
    3378    3396   -3414    3402       1    3372    3390    3405    3426       1
    3372    3393   -3408    3426       1    3372    3393    3408    3429       1
    3369    3354    3366    3381       1    3369    3390    3372    3393       1
    3369    3390    3405    3426       1    3366    3354    3369    3390       1
    3366    3381    3360    3378       1    3366    3381    3402    3414       1
    3360    3378    3396    3414       1    3360    3381   -3402    3414       1
    3357    3348    3351    3360       1    3357    3348    3354    3366       1
    3357    3348    3354    3369       1    3357    3372   -3390    3369       1
    3357    3372    3390    3405       1    3357    3372    3393    3408       1
    3354    3348    3351    3360       1    3354    3348    3357    3372       1
    3354    3366   -3381    3360       1    3354    3366    3381    3402       1
    3354    3369   -3390    3372       1    3354    3369    3390    3405       1
    3351    3348    3354    3366       1    3351    3348    3354    3369       1
    3351    3348    3357    3372       1    3351    3360    3378    3396       1
    3351    3360   -3381    3366       1    3351    3360    3381    3402       1
    3348    3351    3360    3378       1    3348    3351    3360    3381       1
    3348    3354   -3366    3381       1    3348    3354    3369    3390       1
    3348    3357   -3372    3390       1    3348    3357    3372    3393       1
    3537    3516    3534    3543       1    3537    3546   -3552    3543       1
    3534    3516    3537    3546       1    3534    3543   -3552    3546       1
    3516    3534    3543    3552       1    3516    3537   -3546    3552       1
    3513    3534    3516    3537       1    3513    3534    3543    3552       1
    3501    3480    3498    3513       1    3501    3516   -3534    3513       1
    3501    3516    3534    3543       1    3501    3516    3537    3546       1
    3498    3480    3501    3516       1    3498    3513   -3534    3516       1
    3498    3513    3534    3543       1    3489    3468    3486    3504       1
    3489    3510   -3522    3504       1    3486    3468    3489    3510       1
    3486    3504   -3522    3510       1    3480    3498    3513    3534       1
    3480    3501   -3516    3534       1    3480    3501    3516    3537       1
    3477    3462    3474    3489       1    3477    3498    3480    3501       1
    3477    3498    3513    3534       1    3474    3462    3477    3498       1
    3474    3489    3468    3486       1    3474    3489    3510    3522       1
    3468    3486    3504    3522       1    3468    3489   -3510    3522       1
    3465    3456    3459    3468       1    3465    3456    3462    3474       1
    3465    3456    3462    3477       1    3465    3480   -3498    3477       1
    3465    3480    3498    3513       1    3465    3480    3501    3516       1
    3462    3456    3459    3468       1    3462    3456    3465    3480       1
    3462    3474   -3489    3468       1    3462    3474    3489    3510       1
    3462    3477   -3498    3480       1    3462    3477    3498    3513       1
    3459    3456    3462    3474       1    3459    3456    3462    3477       1
    3459    3456    3465    3480       1    3459    3468    3486    3504       1
    3459    3468   -3489    3474       1    3459    3468    3489    3510       1
    3456    3459    3468    3486       1    3456    3459    3468    3489       1
    3456    3462   -3474    3489       1    3456    3462    3477    3498       1
    3456    3465   -3480    3498       1    3456    3465    3480    3501       1
    3645    3624    3642    3651       1    3645    3654   -3660    3651       1
    3642    3624    3645    3654       1    3642    3651   -3660    3654       1
    3624    3642    3651    3660       1    3624    3645   -3654    3660       1
    3621    3642    3624    3645       1    3621    3642    3651    3660       1
    3609    3588    3606    3621       1    3609    3624   -3642    3621       1
    3609    3624    3642    3651       1    3609    3624    3645    3654       1
    3606    3588    3609    3624       1    3606    3621   -3642    3624       1
    3606    3621    3642    3651       1    3597    3576    3594    3612       1
    3597    3618   -3630    3612       1    3594    3576    3597    3618       1
    3594    3612   -3630    3618       1    3588    3606    3621    3642       1
    3588    3609   -3624    3642       1    3588    3609    3624    3645       1
    3585    3570    3582    3597       1    3585    3606    3588    3609       1
    3585    3606    3621    3642       1    3582    3570    3585    3606       1
    3582    3597    3576    3594       1    3582    3597    3618    3630       1
    3576    3594    3612    3630       1    3576    3597   -3618    3630       1
    3573    3564    3567    3576       1    3573    3564    3570    3582       1
    3573    3564    3570    3585       1    3573    3588   -3606    3585       1
    3573    3588    3606    3621       1    3573    3588    3609    3624       1
    3570    3564    3567    3576       1    3570    3564    3573    3588       1
    3570    3582   -3597    3576       1    3570    3582    3597    3618       1
    3570    3585   -3606    3588       1    3570    3585    3606    3621       1
    3567    3564    3570    3582       1    3567    3564    3570    3585       1
    3567    3564    3573    3588       1    3567    3576    3594    3612       1
    3567    3576   -3597    3582       1    3567    3576    3597    3618       1
    3564    3567    3576    3594       1    3564    3567    3576    3597       1
    3564    3570   -3582    3597       1    3564    3570    3585    3606       1
    3564    3573   -3588    3606       1    3564    3573    3588    3609       1
    3753    3732    3750    3759       1    3753    3762   -3768    3759       1
    3750    3732    3753    3762       1    3750    3759   -3768    3762       1
    3732    3750    3759    3768       1    3732    3753   -3762    3768       1
    3729    3750    3732    3753       1    3729    3750    3759    3768       1
    3717    3696    3714    3729       1    3717    3732   -3750    3729       1
    3717    3732    3750    3759       1    3717    3732    3753    3762       1
    3714    3696    3717    3732       1    3714    3729   -3750    3732       1
    3714    3729    3750    3759       1    3705    3684    3702    3720       1
    3705    3726   -3738    3720       1    3702    3684    3705    3726       1
    3702    3720   -3738    3726       1    3696    3714    3729    3750       1
    3696    3717   -3732    3750       1    3696    3717    3732    3753       1
    3693    3678    3690    3705       1    3693    3714    3696    3717       1
    3693    3714    3729    3750       1    3690    3678    3693    3714       1
    3690    3705    3684    3702       1    3690    3705    3726    3738       1
    3684    3702    3720    3738       1    3684    3705   -3726    3738       1
    3681    3672    3675    3684       1    3681    3672    3678    3690       1
    3681    3672    3678    3693       1    3681    3696   -3714    3693       1
    3681    3696    3714    3729       1    3681    3696    3717    3732       1
    3678    3672    3675    3684       1    3678    3672    3681    3696       1
    3678    3690   -3705    3684       1    3678    3690    3705    3726       1
    3678    3693   -3714    3696       1    3678    3693    3714    3729       1
    3675    3672    3678    3690       1    3675    3672    3678    3693       1
    3675    3672    3681    3696       1    3675    3684    3702    3720       1
    3675    3684   -3705    3690       1    3675    3684    3705    3726       1
    3672    3675    3684    3702       1    3672    3675    3684    3705       1
    3672    3678   -3690    3705       1    3672    3678    3693    3714       1
    3672    3681   -3696    3714       1    3672    3681    3696    3717       1
    3861    3840    3858    3867       1    3861    3870   -3876    3867       1
    3858    3840    3861    3870       1    3858    3867   -3876    3870       1
    3840    3858    3867    3876       1    3840    3861   -3870    3876       1
    3837    3858    3840    3861       1    3837    3858    3867    3876       1
    3825    3804    3822    3837       1    3825    3840   -3858    3837       1
    3825    3840    3858    3867       1    3825    3840    3861    3870       1
    3822    3804    3825    3840       1    3822    3837   -3858    3840       1
    3822    3837    3858    3867       1    3813    3792    3810    3828       1
    3813    3834   -3846    3828       1    3810    3792    3813    3834       1
    3810    3828   -3846    3834       1    3804    3822    3837    3858       1
    3804    3825   -3840    3858       1    3804    3825    3840    3861       1
    3801    3786    3798    3813       1    3801    3822    3804    3825       1
    3801    3822    3837    3858       1    3798    3786    3801    3822       1
    3798    3813    3792    3810       1    3798    3813    3834    3846       1
    3792    3810    3828    3846       1    3792    3813   -3834    3846       1
    3789    3780    3783    3792       1    3789    3780    3786    3798       1
    3789    3780    3786    3801       1    3789    3804   -3822    3801       1
    3789    3804    3822    3837       1    3789    3804    3825    3840       1
    3786    3780    3783    3792       1    3786    3780    3789    3804       1
    3786    3798   -3813    3792       1    3786    3798    3813    3834       1
    3786    3801   -3822    3804       1    3786    3801    3822    3837       1
    3783    3780    3786    3798       1    3783    3780    3786    3801       1
    3783    3780    3789    3804       1    3783    3792    3810    3828       1
    3783    3792   -3813    3798       1    3783    3792    3813    3834       1
    3780    3783    3792    3810       1    3780    3783    3792    3813       1
    3780    3786   -3798    3813       1    3780    3786    3801    3822       1
    3780    3789   -3804    3822       1    3780    3789    3804    3825       1
    3969    3948    3966    3975       1    3969    3978   -3984    3975       1
    3966    3948    3969    3978       1    3966    3975   -3984    3978       1
    3948    3966    3975    3984       1    3948    3969   -3978    3984       1
    3945    3966    3948    3969       1    3945    3966    3975    3984       1
    3933    3912    3930    3945       1    3933    3948   -3966    3945       1
    3933    3948    3966    3975       1    3933    3948    3969    3978       1
    3930    3912    3933    3948       1    3930    3945   -3966    3948       1
    3930    3945    3966    3975       1    3921    3900    3918    3936       1
    3921    3942   -3954    3936       1    3918    3900    3921    3942       1
    3918    3936   -3954    3942       1    3912    3930    3945    3966       1
    3912    3933   -3948    3966       1    3912    3933    3948    3969       1
    3909    3894    3906    3921       1    3909    3930    3912    3933       1
    3909    3930    3945    3966       1    3906    3894    3909    3930       1
    3906    3921    3900    3918       1    3906    3921    3942    3954       1
    3900    3918    3936    3954       1    3900    3921   -3942    3954       1
    3897    3888    3891    3900       1    3897    3888    3894    3906       1
    3897    3888    3894    3909       1    3897    3912   -3930    3909       1
    3897    3912    3930    3945       1    3897    3912    3933    3948       1
    3894    3888    3891    3900       1    3894    3888    3897    3912       1
    3894    3906   -3921    3900       1    3894    3906    3921    3942       1
    3894    3909   -3930    3912       1    3894    3909    3930    3945       1
    3891    3888    3894    3906       1    3891    3888    3894    3909       1
    3891    3888    3897    3912       1    3891    3900    3918    3936       1
    3891    3900   -3921    3906       1    3891    3900    3921    3942       1
    3888    3891    3900    3918       1    3888    3891    3900    3921       1
    3888    3894   -3906    3921       1    3888    3894    3909    3930       1
    3888    3897   -3912    3930       1    3888    3897    3912    3933       1
    4077    4056    4074    4083       1    4077    4086   -4092    4083       1
    4074    4056    4077    4086       1    4074    4083   -4092    4086       1
    4056    4074    4083    4092       1    4056    4077   -4086    4092       1
    4053    4074    4056    4077       1    4053    4074    4083    4092       1
    4041    4020    4038    4053       1    4041    4056   -4074    4053       1
    4041    4056    4074    4083       1    4041    4056    4077    4086       1
    4038    4020    4041    4056       1    4038    4053   -4074    4056       1
    4038    4053    4074    4083       1    4029    4008    4026    4044       1
    4029    4050   -4062    4044       1    4026    4008    4029    4050       1
    4026    4044   -4062    4050       1    4020    4038    4053    4074       1
    4020    4041   -4056    4074       1    4020    4041    4056    4077       1
    4017    4002    4014    4029       1    4017    4038    4020    4041       1
    4017    4038    4053    4074       1    4014    4002    4017    4038       1
    4014    4029    4008    4026       1    4014    4029    4050    4062       1
    4008    4026    4044    4062       1    4008    4029   -4050    4062       1
    4005    3996    3999    4008       1    4005    3996    4002    4014       1
    4005    3996    4002    4017       1    4005    4020   -4038    4017       1
    4005    4020    4038    4053       1    4005    4020    4041    4056       1
    4002    3996    3999    4008       1    4002    3996    4005    4020       1
    4002    4014   -4029    4008       1    4002    4014    4029    4050       1
    4002    4017   -4038    4020       1    4002    4017    4038    4053       1
    3999    3996    4002    4014       1    3999    3996    4002    4017       1
    3999    3996    4005    4020       1    3999    4008    4026    4044       1
    3999    4008   -4029    4014       1    3999    4008    4029    4050       1
    3996    3999    4008    4026       1    3996    3999    4008    4029       1
    3996    4002   -4014    4029       1    3996    4002    4017    4038       1
    3996    4005   -4020    4038       1    3996    4005    4020    4041       1
    4185    4164    4182    4191       1    4185    4194   -4200    4191       1
    4182    4164    4185    4194       1    4182    4191   -4200    4194       1
    4164    4182    4191    4200       1    4164    4185   -4194    4200       1
    4161    4182    4164    4185       1    4161    4182    4191    4200       1
    4149    4128    4146    4161       1    4149    4164   -4182    4161       1
    4149    4164    4182    4191       1    4149    4164    4185    4194       1
    4146    4128    4149    4164       1    4146    4161   -4182    4164       1
    4146    4161    4182    4191       1    4137    4116    4134    4152       1
    4137    4158   -4170    4152       1    4134    4116    4137    4158       1
    4134    4152   -4170    4158       1    4128    4146    4161    4182       1
    4128    4149   -4164    4182       1    4128    4149    4164    4185       1
    4125    4110    4122    4137       1    4125    4146    4128    4149       1
    4125    4146    4161    4182       1    4122    4110    4125    4146       1
    4122    4137    4116    4134       1    4122    4137    4158    4170       1
    4116    4134    4152    4170       1    4116    4137   -4158    4170       1
    4113    4104    4107    4116       1    4113    4104    4110    4122       1
    4113    4104    4110    4125       1    4113    4128   -4146    4125       1
    4113    4128    4146    4161       1    4113    4128    4149    4164       1
    4110    4104    4107    4116       1    4110    4104    4113    4128       1
    4110    4122   -4137    4116       1    4110    4122    4137    4158       1
    4110    4125   -4146    4128       1    4110    4125    4146    4161       1
    4107    4104    4110    4122       1    4107    4104    4110    4125       1
    4107    4104    4113    4128       1    4107    4116    4134    4152       1
    4107    4116   -4137    4122       1    4107    4116    4137    4158       1
    4104    4107    4116    4134       1    4104    4107    4116    4137       1
    4104    4110   -4122    4137       1    4104    4110    4125    4146       1
    4104    4113   -4128    4146       1    4104    4113    4128    4149       1
    4293    4272    4290    4299       1    4293    4302   -4308    4299       1
    4290    4272    4293    4302       1    4290    4299   -4308    4302       1
    4272    4290    4299    4308       1    4272    4293   -4302    4308       1
    4269    4290    4272    4293       1    4269    4290    4299    4308       1
    4257    4236    4254    4269       1    4257    4272   -4290    4269       1
    4257    4272    4290    4299       1    4257    4272    4293    4302       1
    4254    4236    4257    4272       1    4254    4269   -4290    4272       1
    4254    4269    4290    4299       1    4245    4224    4242    4260       1
    4245    4266   -4278    4260       1    4242    4224    4245    4266       1
    4242    4260   -4278    4266       1    4236    4254    4269    4290       1
    4236    4257   -4272    4290       1    4236    4257    4272    4293       1
    4233    4218    4230    4245       1    4233    4254    4236    4257       1
    4233    4254    4269    4290       1    4230    4218    4233    4254       1
    4230    4245    4224    4242       1    4230    4245    4266    4278       1
    4224    4242    4260    4278       1    4224    4245   -4266    4278       1
    4221    4212    4215    4224       1    4221    4212    4218    4230       1
    4221    4212    4218    4233       1    4221    4236   -4254    4233       1
    4221    4236    4254    4269       1    4221    4236    4257    4272       1
    4218    4212    4215    4224       1    4218    4212    4221    4236       1
    4218    4230   -4245    4224       1    4218    4230    4245    4266       1
    4218    4233   -4254    4236       1    4218    4233    4254    4269       1
    4215    4212    4218    4230       1    4215    4212    4218    4233       1
    4215    4212    4221    4236       1    4215    4224    4242    4260       1
    4215    4224   -4245    4230       1    4215    4224    4245    4266       1
    4212    4215    4224    4242       1    4212    4215    4224    4245       1
    4212    4218   -4230    4245       1    4212    4218    4233    4254       1
    4212    4221   -4236    4254       1    4212    4221    4236    4257       1
    4401    4380    4398    4407       1    4401    4410   -4416    4407       1
    4398    4380    4401    4410       1    4398    4407   -4416    4410       1
    4380    4398    4407    4416       1    4380    4401   -4410    4416       1
    4377    4398    4380    4401       1    4377    4398    4407    4416       1
    4365    4344    4362    4377       1    4365    4380   -4398    4377       1
    4365    4380    4398    4407       1    4365    4380    4401    4410       1
    4362    4344    4365    4380       1    4362    4377   -4398    4380       1
    4362    4377    4398    4407       1    4353    4332    4350    4368       1
    4353    4374   -4386    4368       1    4350    4332    4353    4374       1
    4350    4368   -4386    4374       1    4344    4362    4377    4398       1
    4344    4365   -4380    4398       1    4344    4365    4380    4401       1
    4341    4326    4338    4353       1    4341    4362    4344    4365       1
    4341    4362    4377    4398       1    4338    4326    4341    4362       1
    4338    4353    4332    4350       1    4338    4353    4374    4386       1
    4332    4350    4368    4386       1    4332    4353   -4374    4386       1
    4329    4320    4323    4332       1    4329    4320    4326    4338       1
    4329    4320    4326    4341       1    4329    4344   -4362    4341       1
    4329    4344    4362    4377       1    4329    4344    4365    4380       1
    4326    4320    4323    4332       1    4326    4320    4329    4344       1
    4326    4338   -4353    4332       1    4326    4338    4353    4374       1
    4326    4341   -4362    4344       1    4326    4341    4362    4377       1
    4323    4320    4326    4338       1    4323    4320    4326    4341       1
    4323    4320    4329    4344       1    4323    4332    4350    4368       1
    4323    4332   -4353    4338       1    4323    4332    4353    4374       1
    4320    4323    4332    4350       1    4320    4323    4332    4353       1
    4320    4326   -4338    4353       1    4320    4326    4341    4362       1
    4320    4329   -4344    4362       1    4320    4329    4344    4365       1
    4509    4488    4506    4515       1    4509    4518   -4524    4515       1
    4506    4488    4509    4518       1    4506    4515   -4524    4518       1
    4488    4506    4515    4524       1    4488    4509   -4518    4524       1
    4485    4506    4488    4509       1    4485    4506    4515    4524       1
    4473    4452    4470    4485       1    4473    4488   -4506    4485       1
    4473    4488    4506    4515       1    4473    4488    4509    4518       1
    4470    4452    4473    4488       1    4470    4485   -4506    4488       1
    4470    4485    4506    4515       1    4461    4440    4458    4476       1
    4461    4482   -4494    4476       1    4458    4440    4461    4482       1
    4458    4476   -4494    4482       1    4452    4470    4485    4506       1
    4452    4473   -4488    4506       1    4452    4473    4488    4509       1
    4449    4434    4446    4461       1    4449    4470    4452    4473       1
    4449    4470    4485    4506       1    4446    4434    4449    4470       1
    4446    4461    4440    4458       1    4446    4461    4482    4494       1
    4440    4458    4476    4494       1    4440    4461   -4482    4494       1
    4437    4428    4431    4440       1    4437    4428    4434    4446       1
    4437    4428    4434    4449       1    4437    4452   -4470    4449       1
    4437    4452    4470    4485       1    4437    4452    4473    4488       1
    4434    4428    4431    4440       1    4434    4428    4437    4452       1
    4434    4446   -4461    4440       1    4434    4446    4461    4482       1
    4434    4449   -4470    4452       1    4434    4449    4470    4485       1
    4431    4428    4434    4446       1    4431    4428    4434    4449       1
    4431    4428    4437    4452       1    4431    4440    4458    4476       1
    4431    4440   -4461    4446       1    4431    4440    4461    4482       1
    4428    4431    4440    4458       1    4428    4431    4440    4461       1
    4428    4434   -4446    4461       1    4428    4434    4449    4470       1
    4428    4437   -4452    4470       1    4428    4437    4452    4473       1
    4617    4596    4614    4623       1    4617    4626   -4632    4623       1
    4614    4596    4617    4626       1    4614    4623   -4632    4626       1
    4596    4614    4623    4632       1    4596    4617   -4626    4632       1
    4593    4614    4596    4617       1    4593    4614    4623    4632       1
    4581    4560    4578    4593       1    4581    4596   -4614    4593       1
    4581    4596    4614    4623       1    4581    4596    4617    4626       1
    4578    4560    4581    4596       1    4578    4593   -4614    4596       1
    4578    4593    4614    4623       1    4569    4548    4566    4584       1
    4569    4590   -4602    4584       1    4566    4548    4569    4590       1
    4566    4584   -4602    4590       1    4560    4578    4593    4614       1
    4560    4581   -4596    4614       1    4560    4581    4596    4617       1
    4557    4542    4554    4569       1    4557    4578    4560    4581       1
    4557    4578    4593    4614       1    4554    4542    4557    4578       1
    4554    4569    4548    4566       1    4554    4569    4590    4602       1
    4548    4566    4584    4602       1    4548    4569   -4590    4602       1
    4545    4536    4539    4548       1    4545    4536    4542    4554       1
    4545    4536    4542    4557       1    4545    4560   -4578    4557       1
    4545    4560    4578    4593       1    4545    4560    4581    4596       1
    4542    4536    4539    4548       1    4542    4536    4545    4560       1
    4542    4554   -4569    4548       1    4542    4554    4569    4590       1
    4542    4557   -4578    4560       1    4542    4557    4578    4593       1
    4539    4536    4542    4554       1    4539    4536    4542    4557       1
    4539    4536    4545    4560       1    4539    4548    4566    4584       1
    4539    4548   -4569    4554       1    4539    4548    4569    4590       1
    4536    4539    4548    4566       1    4536    4539    4548    4569       1
    4536    4542   -4554    4569       1    4536    4542    4557    4578       1
    4536    4545   -4560    4578       1    4536    4545    4560    4581       1
    4725    4704    4722    4731       1    4725    4734   -4740    4731       1
    4722    4704    4725    4734       1    4722    4731   -4740    4734       1
    4704    4722    4731    4740       1    4704    4725   -4734    4740       1
    4701    4722    4704    4725       1    4701    4722    4731    4740       1
    4689    4668    4686    4701       1    4689    4704   -4722    4701       1
    4689    4704    4722    4731       1    4689    4704    4725    4734       1
    4686    4668    4689    4704       1    4686    4701   -4722    4704       1
    4686    4701    4722    4731       1    4677    4656    4674    4692       1
    4677    4698   -4710    4692       1    4674    4656    4677    4698       1
    4674    4692   -4710    4698       1    4668    4686    4701    4722       1
    4668    4689   -4704    4722       1    4668    4689    4704    4725       1
    4665    4650    4662    4677       1    4665    4686    4668    4689       1
    4665    4686    4701    4722       1    4662    4650    4665    4686       1
    4662    4677    4656    4674       1    4662    4677    4698    4710       1
    4656    4674    4692    4710       1    4656    4677   -4698    4710       1
    4653    4644    4647    4656       1    4653    4644    4650    4662       1
    4653    4644    4650    4665       1    4653    4668   -4686    4665       1
    4653    4668    4686    4701       1    4653    4668    4689    4704       1
    4650    4644    4647    4656       1    4650    4644    4653    4668       1
    4650    4662   -4677    4656       1    4650    4662    4677    4698       1
    4650    4665   -4686    4668       1    4650    4665    4686    4701       1
    4647    4644    4650    4662       1    4647    4644    4650    4665       1
    4647    4644    4653    4668       1    4647    4656    4674    4692       1
    4647    4656   -4677    4662       1    4647    4656    4677    4698       1
    4644    4647    4656    4674       1    4644    4647    4656    4677       1
    4644    4650   -4662    4677       1    4644    4650    4665    4686       1
    4644    4653   -4668    4686       1    4644    4653    4668    4689       1
    4833    4812    4830    4839       1    4833    4842   -4848    4839       1
    4830    4812    4833    4842       1    4830    4839   -4848    4842       1
    4812    4830    4839    4848       1    4812    4833   -4842    4848       1
    4809    4830    4812    4833       1    4809    4830    4839    4848       1
    4797    4776    4794    4809       1    4797    4812   -4830    4809       1
    4797    4812    4830    4839       1    4797    4812    4833    4842       1
    4794    4776    4797    4812       1    4794    4809   -4830    4812       1
    4794    4809    4830    4839       1    4785    4764    4782    4800       1
    4785    4806   -4818    4800       1    4782    4764    4785    4806       1
    4782    4800   -4818    4806       1    4776    4794    4809    4830       1
    4776    4797   -4812    4830       1    4776    4797    4812    4833       1
    4773    4758    4770    4785       1    4773    4794    4776    4797       1
    4773    4794    4809    4830       1    4770    4758    4773    4794       1
    4770    4785    4764    4782       1    4770    4785    4806    4818       1
    4764    4782    4800    4818       1    4764    4785   -4806    4818       1
    4761    4752    4755    4764       1    4761    4752    4758    4770       1
    4761    4752    4758    4773       1    4761    4776   -4794    4773       1
    4761    4776    4794    4809       1    4761    4776    4797    4812       1
    4758    4752    4755    4764       1    4758    4752    4761    4776       1
    4758    4770   -4785    4764       1    4758    4770    4785    4806       1
    4758    4773   -4794    4776       1    4758    4773    4794    4809       1
    4755    4752    4758    4770       1    4755    4752    4758    4773       1
    4755    4752    4761    4776       1    4755    4764    4782    4800       1
    4755    4764   -4785    4770       1    4755    4764    4785    4806       1
    4752    4755    4764    4782       1    4752    4755    4764    4785       1
    4752    4758   -4770    4785       1    4752    4758    4773    4794       1
    4752    4761   -4776    4794       1    4752    4761    4776    4797       1
    4941    4920    4938    4947       1    4941    4950   -4956    4947       1
    4938    4920    4941    4950       1    4938    4947   -4956    4950       1
    4920    4938    4947    4956       1    4920    4941   -4950    4956       1
    4917    4938    4920    4941       1    4917    4938    4947    4956       1
    4905    4884    4902    4917       1    4905    4920   -4938    4917       1
    4905    4920    4938    4947       1    4905    4920    4941    4950       1
    4902    4884    4905    4920       1    4902    4917   -4938    4920       1
    4902    4917    4938    4947       1    4893    4872    4890    4908       1
    4893    4914   -4926    4908       1    4890    4872    4893    4914       1
    4890    4908   -4926    4914       1    4884    4902    4917    4938       1
    4884    4905   -4920    4938       1    4884    4905    4920    4941       1
    4881    4866    4878    4893       1    4881    4902    4884    4905       1
    4881    4902    4917    4938       1    4878    4866    4881    4902       1
    4878    4893    4872    4890       1    4878    4893    4914    4926       1
    4872    4890    4908    4926       1    4872    4893   -4914    4926       1
    4869    4860    4863    4872       1    4869    4860    4866    4878       1
    4869    4860    4866    4881       1    4869    4884   -4902    4881       1
    4869    4884    4902    4917       1    4869    4884    4905    4920       1
    4866    4860    4863    4872       1    4866    4860    4869    4884       1
    4866    4878   -4893    4872       1    4866    4878    4893    4914       1
    4866    4881   -4902    4884       1    4866    4881    4902    4917       1
    4863    4860    4866    4878       1    4863    4860    4866    4881       1
    4863    4860    4869    4884       1    4863    4872    4890    4908       1
    4863    4872   -4893    4878       1    4863    4872    4893    4914       1
    4860    4863    4872    4890       1    4860    4863    4872    4893       1
    4860    4866   -4878    4893       1    4860    4866    4881    4902       1
    4860    4869   -4884    4902       1    4860    4869    4884    4905       1
    5049    5028    5046    5055       1    5049    5058   -5064    5055       1
    5046    5028    5049    5058       1    5046    5055   -5064    5058       1
    5028    5046    5055    5064       1    5028    5049   -5058    5064       1
    5025    5046    5028    5049       1    5025    5046    5055    5064       1
    5013    4992    5010    5025       1    5013    5028   -5046    5025       1
    5013    5028    5046    5055       1    5013    5028    5049    5058       1
    5010    4992    5013    5028       1    5010    5025   -5046    5028       1
    5010    5025    5046    5055       1    5001    4980    4998    5016       1
    5001    5022   -5034    5016       1    4998    4980    5001    5022       1
    4998    5016   -5034    5022       1    4992    5010    5025    5046       1
    4992    5013   -5028    5046       1    4992    5013    5028    5049       1
    4989    4974    4986    5001       1    4989    5010    4992    5013       1
    4989    5010    5025    5046       1    4986    4974    4989    5010       1
    4986    5001    4980    4998       1    4986    5001    5022    5034       1
    4980    4998    5016    5034       1    4980    5001   -5022    5034       1
    4977    4968    4971    4980       1    4977    4968    4974    4986       1
    4977    4968    4974    4989       1    4977    4992   -5010    4989       1
    4977    4992    5010    5025       1    4977    4992    5013    5028       1
    4974    4968    4971    4980       1    4974    4968    4977    4992       1
    4974    4986   -5001    4980       1    4974    4986    5001    5022       1
    4974    4989   -5010    4992       1    4974    4989    5010    5025       1
    4971    4968    4974    4986       1    4971    4968    4974    4989       1
    4971    4968    4977    4992       1    4971    4980    4998    5016       1
    4971    4980   -5001    4986       1    4971    4980    5001    5022       1
    4968    4971    4980    4998       1    4968    4971    4980    5001       1
    4968    4974   -4986    5001       1    4968    4974    4989    5010       1
    4968    4977   -4992    5010       1    4968    4977    4992    5013       1
    5157    5136    5154    5163       1    5157    5166   -5172    5163       1
    5154    5136    5157    5166       1    5154    5163   -5172    5166       1
    5136    5154    5163    5172       1    5136    5157   -5166    5172       1
    5133    5154    5136    5157       1    5133    5154    5163    5172       1
    5121    5100    5118    5133       1    5121    5136   -5154    5133       1
    5121    5136    5154    5163       1    5121    5136    5157    5166       1
    5118    5100    5121    5136       1    5118    5133   -5154    5136       1
    5118    5133    5154    5163       1    5109    5088    5106    5124       1
    5109    5130   -5142    5124       1    5106    5088    5109    5130       1
    5106    5124   -5142    5130       1    5100    5118    5133    5154       1
    5100    5121   -5136    5154       1    5100    5121    5136    5157       1
    5097    5082    5094    5109       1    5097    5118    5100    5121       1
    5097    5118    5133    5154       1    5094    5082    5097    5118       1
    5094    5109    5088    5106       1    5094    5109    5130    5142       1
    5088    5106    5124    5142       1    5088    5109   -5130    5142       1
    5085    5076    5079    5088       1    5085    5076    5082    5094       1
    5085    5076    5082    5097       1    5085    5100   -5118    5097       1
    5085    5100    5118    5133       1    5085    5100    5121    5136       1
    5082    5076    5079    5088       1    5082    5076    5085    5100       1
    5082    5094   -5109    5088       1    5082    5094    5109    5130       1
    5082    5097   -5118    5100       1    5082    5097    5118    5133       1
    5079    5076    5082    5094       1    5079    5076    5082    5097       1
    5079    5076    5085    5100       1    5079    5088    5106    5124       1
    5079    5088   -5109    5094       1    5079    5088    5109    5130       1
    5076    5079    5088    5106       1    5076    5079    5088    5109       1
    5076    5082   -5094    5109       1    5076    5082    5097    5118       1
    5076    5085   -5100    5118       1    5076    5085    5100    5121       1
    5265    5244    5262    5271       1    5265    5274   -5280    5271       1
    5262    5244    5265    5274       1    5262    5271   -5280    5274       1
    5244    5262    5271    5280       1    5244    5265   -5274    5280       1
    5241    5262    5244    5265       1    5241    5262    5271    5280       1
    5229    5208    5226    5241       1    5229    5244   -5262    5241       1
    5229    5244    5262    5271       1    5229    5244    5265    5274       1
    5226    5208    5229    5244       1    5226    5241   -5262    5244       1
    5226    5241    5262    5271       1    5217    5196    5214    5232       1
    5217    5238   -5250    5232       1    5214    5196    5217    5238       1
    5214    5232   -5250    5238       1    5208    5226    5241    5262       1
    5208    5229   -5244    5262       1    5208    5229    5244    5265       1
    5205    5190    5202    5217       1    5205    5226    5208    5229       1
    5205    5226    5241    5262       1    5202    5190    5205    5226       1
    5202    5217    5196    5214       1    5202    5217    5238    5250       1
    5196    5214    5232    5250       1    5196    5217   -5238    5250       1
    5193    5184    5187    5196       1    5193    5184    5190    5202       1
    5193    5184    5190    5205       1    5193    5208   -5226    5205       1
    5193    5208    5226    5241       1    5193    5208    5229    5244       1
    5190    5184    5187    5196       1    5190    5184    5193    5208       1
    5190    5202   -5217    5196       1    5190    5202    5217    5238       1
    5190    5205   -5226    5208       1    5190    5205    5226    5241       1
    5187    5184    5190    5202       1    5187    5184    5190    5205       1
    5187    5184    5193    5208       1    5187    5196    5214    5232       1
    5187    5196   -5217    5202       1    5187    5196    5217    5238       1
    5184    5187    5196    5214       1    5184    5187    5196    5217       1
    5184    5190   -5202    5217       1    5184    5190    5205    5226       1
    5184    5193   -5208    5226       1    5184    5193    5208    5229       1
    5373    5352    5370    5379       1    5373    5382   -5388    5379       1
    5370    5352    5373    5382       1    5370    5379   -5388    5382       1
    5352    5370    5379    5388       1    5352    5373   -5382    5388       1
    5349    5370    5352    5373       1    5349    5370    5379    5388       1
    5337    5316    5334    5349       1    5337    5352   -5370    5349       1
    5337    5352    5370    5379       1    5337    5352    5373    5382       1
    5334    5316    5337    5352       1    5334    5349   -5370    5352       1
    5334    5349    5370    5379       1    5325    5304    5322    5340       1
    5325    5346   -5358    5340       1    5322    5304    5325    5346       1
    5322    5340   -5358    5346       1    5316    5334    5349    5370       1
    5316    5337   -5352    5370       1    5316    5337    5352    5373       1
    5313    5298    5310    5325       1    5313    5334    5316    5337       1
    5313    5334    5349    5370       1    5310    5298    5313    5334       1
    5310    5325    5304    5322       1    5310    5325    5346    5358       1
    5304    5322    5340    5358       1    5304    5325   -5346    5358       1
    5301    5292    5295    5304       1    5301    5292    5298    5310       1
    5301    5292    5298    5313       1    5301    5316   -5334    5313       1
    5301    5316    5334    5349       1    5301    5316    5337    5352       1
    5298    5292    5295    5304       1    5298    5292    5301    5316       1
    5298    5310   -5325    5304       1    5298    5310    5325    5346       1
    5298    5313   -5334    5316       1    5298    5313    5334    5349       1
    5295    5292    5298    5310       1    5295    5292    5298    5313       1
    5295    5292    5301    5316       1    5295    5304    5322    5340       1
    5295    5304   -5325    5310       1    5295    5304    5325    5346       1
    5292    5295    5304    5322       1    5292    5295    5304    5325       1
    5292    5298   -5310    5325       1    5292    5298    5313    5334       1
    5292    5301   -5316    5334       1    5292    5301    5316    5337       1
    5481    5460    5478    5487       1    5481    5490   -5496    5487       1
    5478    5460    5481    5490       1    5478    5487   -5496    5490       1
    5460    5478    5487    5496       1    5460    5481   -5490    5496       1
    5457    5478    5460    5481       1    5457    5478    5487    5496       1
    5445    5424    5442    5457       1    5445    5460   -5478    5457       1
    5445    5460    5478    5487       1    5445    5460    5481    5490       1
    5442    5424    5445    5460       1    5442    5457   -5478    5460       1
    5442    5457    5478    5487       1    5433    5412    5430    5448       1
    5433    5454   -5466    5448       1    5430    5412    5433    5454       1
    5430    5448   -5466    5454       1    5424    5442    5457    5478       1
    5424    5445   -5460    5478       1    5424    5445    5460    5481       1
    5421    5406    5418    5433       1    5421    5442    5424    5445       1
    5421    5442    5457    5478       1    5418    5406    5421    5442       1
    5418    5433    5412    5430       1    5418    5433    5454    5466       1
    5412    5430    5448    5466       1    5412    5433   -5454    5466       1
    5409    5400    5403    5412       1    5409    5400    5406    5418       1
    5409    5400    5406    5421       1    5409    5424   -5442    5421       1
    5409    5424    5442    5457       1    5409    5424    5445    5460       1
    5406    5400    5403    5412       1    5406    5400    5409    5424       1
    5406    5418   -5433    5412       1    5406    5418    5433    5454       1
    5406    5421   -5442    5424       1    5406    5421    5442    5457       1
    5403    5400    5406    5418       1    5403    5400    5406    5421       1
    5403    5400    5409    5424       1    5403    5412    5430    5448       1
    5403    5412   -5433    5418       1    5403    5412    5433    5454       1
    5400    5403    5412    5430       1    5400    5403    5412    5433       1
    5400    5406   -5418    5433       1    5400    5406    5421    5442       1
    5400    5409   -5424    5442       1    5400    5409    5424    5445       1
    5589    5568    5586    5595       1    5589    5598   -5604    5595       1
    5586    5568    5589    5598       1    5586    5595   -5604    5598       1
    5568    5586    5595    5604       1    5568    5589   -5598    5604       1
    5565    5586    5568    5589       1    5565    5586    5595    5604       1
    5553    5532    5550    5565       1    5553    5568   -5586    5565       1
    5553    5568    5586    5595       1    5553    5568    5589    5598       1
    5550    5532    5553    5568       1    5550    5565   -5586    5568       1
    5550    5565    5586    5595       1    5541    5520    5538    5556       1
    5541    5562   -5574    5556       1    5538    5520    5541    5562       1
    5538    5556   -5574    5562       1    5532    5550    5565    5586       1
    5532    5553   -5568    5586       1    5532    5553    5568    5589       1
    5529    5514    5526    5541       1    5529    5550    5532    5553       1
    5529    5550    5565    5586       1    5526    5514    5529    5550       1
    5526    5541    5520    5538       1    5526    5541    5562    5574       1
    5520    5538    5556    5574       1    5520    5541   -5562    5574       1
    5517    5508    5511    5520       1    5517    5508    5514    5526       1
    5517    5508    5514    5529       1    5517    5532   -5550    5529       1
    5517    5532    5550    5565       1    5517    5532    5553    5568       1
    5514    5508    5511    5520       1    5514    5508    5517    5532       1
    5514    5526   -5541    5520       1    5514    5526    5541    5562       1
    5514    5529   -5550    5532       1    5514    5529    5550    5565       1
    5511    5508    5514    5526       1    5511    5508    5514    5529       1
    5511    5508    5517    5532       1    5511    5520    5538    5556       1
    5511    5520   -5541    5526       1    5511    5520    5541    5562       1
    5508    5511    5520    5538       1    5508    5511    5520    5541       1
    5508    5514   -5526    5541       1    5508    5514    5529    5550       1
    5508    5517   -5532    5550       1    5508    5517    5532    5553       1
    5697    5676    5694    5703       1    5697    5706   -5712    5703       1
    5694    5676    5697    5706       1    5694    5703   -5712    5706       1
    5676    5694    5703    5712       1    5676    5697   -5706    5712       1
    5673    5694    5676    5697       1    5673    5694    5703    5712       1
    5661    5640    5658    5673       1    5661    5676   -5694    5673       1
    5661    5676    5694    5703       1    5661    5676    5697    5706       1
    5658    5640    5661    5676       1    5658    5673   -5694    5676       1
    5658    5673    5694    5703       1    5649    5628    5646    5664       1
    5649    5670   -5682    5664       1    5646    5628    5649    5670       1
    5646    5664   -5682    5670       1    5640    5658    5673    5694       1
    5640    5661   -5676    5694       1    5640    5661    5676    5697       1
    5637    5622    5634    5649       1    5637    5658    5640    5661       1
    5637    5658    5673    5694       1    5634    5622    5637    5658       1
    5634    5649    5628    5646       1    5634    5649    5670    5682       1
    5628    5646    5664    5682       1    5628    5649   -5670    5682       1
    5625    5616    5619    5628       1    5625    5616    5622    5634       1
    5625    5616    5622    5637       1    5625    5640   -5658    5637       1
    5625    5640    5658    5673       1    5625    5640    5661    5676       1
    5622    5616    5619    5628       1    5622    5616    5625    5640       1
    5622    5634   -5649    5628       1    5622    5634    5649    5670       1
    5622    5637   -5658    5640       1    5622    5637    5658    5673       1
    5619    5616    5622    5634       1    5619    5616    5622    5637       1
    5619    5616    5625    5640       1    5619    5628    5646    5664       1
    5619    5628   -5649    5634       1    5619    5628    5649    5670       1
    5616    5619    5628    5646       1    5616    5619    5628    5649       1
    5616    5622   -5634    5649       1    5616    5622    5637    5658       1
    5616    5625   -5640    5658       1    5616    5625    5640    5661       1
    5805    5784    5802    5811       1    5805    5814   -5820    5811       1
    5802    5784    5805    5814       1    5802    5811   -5820    5814       1
    5784    5802    5811    5820       1    5784    5805   -5814    5820       1
    5781    5802    5784    5805       1    5781    5802    5811    5820       1
    5769    5748    5766    5781       1    5769    5784   -5802    5781       1
    5769    5784    5802    5811       1    5769    5784    5805    5814       1
    5766    5748    5769    5784       1    5766    5781   -5802    5784       1
    5766    5781    5802    5811       1    5757    5736    5754    5772       1
    5757    5778   -5790    5772       1    5754    5736    5757    5778       1
    5754    5772   -5790    5778       1    5748    5766    5781    5802       1
    5748    5769   -5784    5802       1    5748    5769    5784    5805       1
    5745    5730    5742    5757       1    5745    5766    5748    5769       1
    5745    5766    5781    5802       1    5742    5730    5745    5766       1
    5742    5757    5736    5754       1    5742    5757    5778    5790       1
    5736    5754    5772    5790       1    5736    5757   -5778    5790       1
    5733    5724    5727    5736       1    5733    5724    5730    5742       1
    5733    5724    5730    5745       1    5733    5748   -5766    5745       1
    5733    5748    5766    5781       1    5733    5748    5769    5784       1
    5730    5724    5727    5736       1    5730    5724    5733    5748       1
    5730    5742   -5757    5736       1    5730    5742    5757    5778       1
    5730    5745   -5766    5748       1    5730    5745    5766    5781       1
    5727    5724    5730    5742       1    5727    5724    5730    5745       1
    5727    5724    5733    5748       1    5727    5736    5754    5772       1
    5727    5736   -5757    5742       1    5727    5736    5757    5778       1
    5724    5727    5736    5754       1    5724    5727    5736    5757       1
    5724    5730   -5742    5757       1    5724    5730    5745    5766       1
    5724    5733   -5748    5766       1    5724    5733    5748    5769       1
    5913    5892    5910    5919       1    5913    5922   -5928    5919       1
    5910    5892    5913    5922       1    5910    5919   -5928    5922       1
    5892    5910    5919    5928       1    5892    5913   -5922    5928       1
    5889    5910    5892    5913       1    5889    5910    5919    5928       1
    5877    5856    5874    5889       1    5877    5892   -5910    5889       1
    5877    5892    5910    5919       1    5877    5892    5913    5922       1
    5874    5856    5877    5892       1    5874    5889   -5910    5892       1
    5874    5889    5910    5919       1    5865    5844    5862    5880       1
    5865    5886   -5898    5880       1    5862    5844    5865    5886       1
    5862    5880   -5898    5886       1    5856    5874    5889    5910       1
    5856    5877   -5892    5910       1    5856    5877    5892    5913       1
    5853    5838    5850    5865       1    5853    5874    5856    5877       1
    5853    5874    5889    5910       1    5850    5838    5853    5874       1
    5850    5865    5844    5862       1    5850    5865    5886    5898       1
    5844    5862    5880    5898       1    5844    5865   -5886    5898       1
    5841    5832    5835    5844       1    5841    5832    5838    5850       1
    5841    5832    5838    5853       1    5841    5856   -5874    5853       1
    5841    5856    5874    5889       1    5841    5856    5877    5892       1
    5838    5832    5835    5844       1    5838    5832    5841    5856       1
    5838    5850   -5865    5844       1    5838    5850    5865    5886       1
    5838    5853   -5874    5856       1    5838    5853    5874    5889       1
    5835    5832    5838    5850       1    5835    5832    5838    5853       1
    5835    5832    5841    5856       1    5835    5844    5862    5880       1
    5835    5844   -5865    5850       1    5835    5844    5865    5886       1
    5832    5835    5844    5862       1    5832    5835    5844    5865       1
    5832    5838   -5850    5865       1    5832    5838    5853    5874       1
    5832    5841   -5856    5874       1    5832    5841    5856    5877       1
    6021    6000    6018    6027       1    6021    6030   -6036    6027       1
    6018    6000    6021    6030       1    6018    6027   -6036    6030       1
    6000    6018    6027    6036       1    6000    6021   -6030    6036       1
    5997    6018    6000    6021       1    5997    6018    6027    6036       1
    5985    5964    5982    5997       1    5985    6000   -6018    5997       1
    5985    6000    6018    6027       1    5985    6000    6021    6030       1
    5982    5964    5985    6000       1    5982    5997   -6018    6000       1
    5982    5997    6018    6027       1    5973    5952    5970    5988       1
    5973    5994   -6006    5988       1    5970    5952    5973    5994       1
    5970    5988   -6006    5994       1    5964    5982    5997    6018       1
    5964    5985   -6000    6018       1    5964    5985    6000    6021       1
    5961    5946    5958    5973       1    5961    5982    5964    5985       1
    5961    5982    5997    6018       1    5958    5946    5961    5982       1
    5958    5973    5952    5970       1    5958    5973    5994    6006       1
    5952    5970    5988    6006       1    5952    5973   -5994    6006       1
    5949    5940    5943    5952       1    5949    5940    5946    5958       1
    5949    5940    5946    5961       1    5949    5964   -5982    5961       1
    5949    5964    5982    5997       1    5949    5964    5985    6000       1
    5946    5940    5943    5952       1    5946    5940    5949    5964       1
    5946    5958   -5973    5952       1    5946    5958    5973    5994       1
    5946    5961   -5982    5964       1    5946    5961    5982    5997       1
    5943    5940    5946    5958       1    5943    5940    5946    5961       1
    5943    5940    5949    5964       1    5943    5952    5970    5988       1
    5943    5952   -5973    5958       1    5943    5952    5973    5994       1
    5940    5943    5952    5970       1    5940    5943    5952    5973       1
    5940    5946   -5958    5973       1    5940    5946    5961    5982       1
    5940    5949   -5964    5982       1    5940    5949    5964    5985       1
    6129    6108    6126    6135       1    6129    6138   -6144    6135       1
    6126    6108    6129    6138       1    6126    6135   -6144    6138       1
    6108    6126    6135    6144       1    6108    6129   -6138    6144       1
    6105    6126    6108    6129       1    6105    6126    6135    6144       1
    6093    6072    6090    6105       1    6093    6108   -6126    6105       1
    6093    6108    6126    6135       1    6093    6108    6129    6138       1
    6090    6072    6093    6108       1    6090    6105   -6126    6108       1
    6090    6105    6126    6135       1    6081    6060    6078    6096       1
    6081    6102   -6114    6096       1    6078    6060    6081    6102       1
    6078    6096   -6114    6102       1    6072    6090    6105    6126       1
    6072    6093   -6108    6126       1    6072    6093    6108    6129       1
    6069    6054    6066    6081       1    6069    6090    6072    6093       1
    6069    6090    6105    6126       1    6066    6054    6069    6090       1
    6066    6081    6060    6078       1    6066    6081    6102    6114       1
    6060    6078    6096    6114       1    6060    6081   -6102    6114       1
    6057    6048    6051    6060       1    6057    6048    6054    6066       1
    6057    6048    6054    6069       1    6057    6072   -6090    6069       1
    6057    6072    6090    6105       1    6057    6072    6093    6108       1
    6054    6048    6051    6060       1    6054    6048    6057    6072       1
    6054    6066   -6081    6060       1    6054    6066    6081    6102       1
    6054    6069   -6090    6072       1    6054    6069    6090    6105       1
    6051    6048    6054    6066       1    6051    6048    6054    6069       1
    6051    6048    6057    6072       1    6051    6060    6078    6096       1
    6051    6060   -6081    6066       1    6051    6060    6081    6102       1
    6048    6051    6060    6078       1    6048    6051    6060    6081       1
    6048    6054   -6066    6081       1    6048    6054    6069    6090       1
    6048    6057   -6072    6090       1    6048    6057    6072    6093       1
    6237    6216    6234    6243       1    6237    6246   -6252    6243       1
    6234    6216    6237    6246       1    6234    6243   -6252    6246       1
    6216    6234    6243    6252       1    6216    6237   -6246    6252       1
    6213    6234    6216    6237       1    6213    6234    6243    6252       1
    6201    6180    6198    6213       1    6201    6216   -6234    6213       1
    6201    6216    6234    6243       1    6201    6216    6237    6246       1
    6198    6180    6201    6216       1    6198    6213   -6234    6216       1
    6198    6213    6234    6243       1    6189    6168    6186    6204       1
    6189    6210   -6222    6204       1    6186    6168    6189    6210       1
    6186    6204   -6222    6210       1    6180    6198    6213    6234       1
    6180    6201   -6216    6234       1    6180    6201    6216    6237       1
    6177    6162    6174    6189       1    6177    6198    6180    6201       1
    6177    6198    6213    6234       1    6174    6162    6177    6198       1
    6174    6189    6168    6186       1    6174    6189    6210    6222       1
    6168    6186    6204    6222       1    6168    6189   -6210    6222       1
    6165    6156    6159    6168       1    6165    6156    6162    6174       1
    6165    6156    6162    6177       1    6165    6180   -6198    6177       1
    6165    6180    6198    6213       1    6165    6180    6201    6216       1
    6162    6156    6159    6168       1    6162    6156    6165    6180       1
    6162    6174   -6189    6168       1    6162    6174    6189    6210       1
    6162    6177   -6198    6180       1    6162    6177    6198    6213       1
    6159    6156    6162    6174       1    6159    6156    6162    6177       1
    6159    6156    6165    6180       1    6159    6168    6186    6204       1
    6159    6168   -6189    6174       1    6159    6168    6189    6210       1
    6156    6159    6168    6186       1    6156    6159    6168    6189       1
    6156    6162   -6174    6189       1    6156    6162    6177    6198       1
    6156    6165   -6180    6198       1    6156    6165    6180    6201       1
    6345    6324    6342    6351       1    6345    6354   -6360    6351       1
    6342    6324    6345    6354       1    6342    6351   -6360    6354       1
    6324    6342    6351    6360       1    6324    6345   -6354    6360       1
    6321    6342    6324    6345       1    6321    6342    6351    6360       1
    6309    6288    6306    6321       1    6309    6324   -6342    6321       1
    6309    6324    6342    6351       1    6309    6324    6345    6354       1
    6306    6288    6309    6324       1    6306    6321   -6342    6324       1
    6306    6321    6342    6351       1    6297    6276    6294    6312       1
    6297    6318   -6330    6312       1    6294    6276    6297    6318       1
    6294    6312   -6330    6318       1    6288    6306    6321    6342       1
    6288    6309   -6324    6342       1    6288    6309    6324    6345       1
    6285    6270    6282    6297       1    6285    6306    6288    6309       1
    6285    6306    6321    6342       1    6282    6270    6285    6306       1
    6282    6297    6276    6294       1    6282    6297    6318    6330       1
    6276    6294    6312    6330       1    6276    6297   -6318    6330       1
    6273    6264    6267    6276       1    6273    6264    6270    6282       1
    6273    6264    6270    6285       1    6273    6288   -6306    6285       1
    6273    6288    6306    6321       1    6273    6288    6309    6324       1
    6270    6264    6267    6276       1    6270    6264    6273    6288       1
    6270    6282   -6297    6276       1    6270    6282    6297    6318       1
    6270    6285   -6306    6288       1    6270    6285    6306    6321       1
    6267    6264    6270    6282       1    6267    6264    6270    6285       1
    6267    6264    6273    6288       1    6267    6276    6294    6312       1
    6267    6276   -6297    6282       1    6267    6276    6297    6318       1
    6264    6267    6276    6294       1    6264    6267    6276    6297       1
    6264    6270   -6282    6297       1    6264    6270    6285    6306       1
    6264    6273   -6288    6306       1    6264    6273    6288    6309       1
    6453    6432    6450    6459       1    6453    6462   -6468    6459       1
    6450    6432    6453    6462       1    6450    6459   -6468    6462       1
    6432    6450    6459    6468       1    6432    6453   -6462    6468       1
    6429    6450    6432    6453       1    6429    6450    6459    6468       1
    6417    6396    6414    6429       1    6417    6432   -6450    6429       1
    6417    6432    6450    6459       1    6417    6432    6453    6462       1
    6414    6396    6417    6432       1    6414    6429   -6450    6432       1
    6414    6429    6450    6459       1    6405    6384    6402    6420       1
    6405    6426   -6438    6420       1    6402    6384    6405    6426       1
    6402    6420   -6438    6426       1    6396    6414    6429    6450       1
    6396    6417   -6432    6450       1    6396    6417    6432    6453       1
    6393    6378    6390    6405       1    6393    6414    6396    6417       1
    6393    6414    6429    6450       1    6390    6378    6393    6414       1
    6390    6405    6384    6402       1    6390    6405    6426    6438       1
    6384    6402    6420    6438       1    6384    6405   -6426    6438       1
    6381    6372    6375    6384       1    6381    6372    6378    6390       1
    6381    6372    6378    6393       1    6381    6396   -6414    6393       1
    6381    6396    6414    6429       1    6381    6396    6417    6432       1
    6378    6372    6375    6384       1    6378    6372    6381    6396       1
    6378    6390   -6405    6384       1    6378    6390    6405    6426       1
    6378    6393   -6414    6396       1    6378    6393    6414    6429       1
    6375    6372    6378    6390       1    6375    6372    6378    6393       1
    6375    6372    6381    6396       1    6375    6384    6402    6420       1
    6375    6384   -6405    6390       1    6375    6384    6405    6426       1
    6372    6375    6384    6402       1    6372    6375    6384    6405       1
    6372    6378   -6390    6405       1    6372    6378    6393    6414       1
    6372    6381   -6396    6414       1    6372    6381    6396    6417       1
    6561    6540    6558    6567       1    6561    6570   -6576    6567       1
    6558    6540    6561    6570       1    6558    6567   -6576    6570       1
    6540    6558    6567    6576       1    6540    6561   -6570    6576       1
    6537    6558    6540    6561       1    6537    6558    6567    6576       1
    6525    6504    6522    6537       1    6525    6540   -6558    6537       1
    6525    6540    6558    6567       1    6525    6540    6561    6570       1
    6522    6504    6525    6540       1    6522    6537   -6558    6540       1
    6522    6537    6558    6567       1    6513    6492    6510    6528       1
    6513    6534   -6546    6528       1    6510    6492    6513    6534       1
    6510    6528   -6546    6534       1    6504    6522    6537    6558       1
    6504    6525   -6540    6558       1    6504    6525    6540    6561       1
    6501    6486    6498    6513       1    6501    6522    6504    6525       1
    6501    6522    6537    6558       1    6498    6486    6501    6522       1
    6498    6513    6492    6510       1    6498    6513    6534    6546       1
    6492    6510    6528    6546       1    6492    6513   -6534    6546       1
    6489    6480    6483    6492       1    6489    6480    6486    6498       1
    6489    6480    6486    6501       1    6489    6504   -6522    6501       1
    6489    6504    6522    6537       1    6489    6504    6525    6540       1
    6486    6480    6483    6492       1    6486    6480    6489    6504       1
    6486    6498   -6513    6492       1    6486    6498    6513    6534       1
    6486    6501   -6522    6504       1    6486    6501    6522    6537       1
    6483    6480    6486    6498       1    6483    6480    6486    6501       1
    6483    6480    6489    6504       1    6483    6492    6510    6528       1
    6483    6492   -6513    6498       1    6483    6492    6513    6534       1
    6480    6483    6492    6510       1    6480    6483    6492    6513       1
    6480    6486   -6498    6513       1    6480    6486    6501    6522       1
    6480    6489   -6504    6522       1    6480    6489    6504    6525       1
    6669    6648    6666    6675       1    6669    6678   -6684    6675       1
    6666    6648    6669    6678       1    6666    6675   -6684    6678       1
    6648    6666    6675    6684       1    6648    6669   -6678    6684       1
    6645    6666    6648    6669       1    6645    6666    6675    6684       1
    6633    6612    6630    6645       1    6633    6648   -6666    6645       1
    6633    6648    6666    6675       1    6633    6648    6669    6678       1
    6630    6612    6633    6648       1    6630    6645   -6666    6648       1
    6630    6645    6666    6675       1    6621    6600    6618    6636       1
    6621    6642   -6654    6636       1    6618    6600    6621    6642       1
    6618    6636   -6654    6642       1    6612    6630    6645    6666       1
    6612    6633   -6648    6666       1    6612    6633    6648    6669       1
    6609    6594    6606    6621       1    6609    6630    6612    6633       1
    6609    6630    6645    6666       1    6606    6594    6609    6630       1
    6606    6621    6600    6618       1    6606    6621    6642    6654       1
    6600    6618    6636    6654       1    6600    6621   -6642    6654       1
    6597    6588    6591    6600       1    6597    6588    6594    6606       1
    6597    6588    6594    6609       1    6597    6612   -6630    6609       1
    6597    6612    6630    6645       1    6597    6612    6633    6648       1
    6594    6588    6591    6600       1    6594    6588    6597    6612       1
    6594    6606   -6621    6600       1    6594    6606    6621    6642       1
    6594    6609   -6630    6612       1    6594    6609    6630    6645       1
    6591    6588    6594    6606       1    6591    6588    6594    6609       1
    6591    6588    6597    6612       1    6591    6600    6618    6636       1
    6591    6600   -6621    6606       1    6591    6600    6621    6642       1
    6588    6591    6600    6618       1    6588    6591    6600    6621       1
    6588    6594   -6606    6621       1    6588    6594    6609    6630       1
    6588    6597   -6612    6630       1    6588    6597    6612    6633       1
    6777    6756    6774    6783       1    6777    6786   -6792    6783       1
    6774    6756    6777    6786       1    6774    6783   -6792    6786       1
    6756    6774    6783    6792       1    6756    6777   -6786    6792       1
    6753    6774    6756    6777       1    6753    6774    6783    6792       1
    6741    6720    6738    6753       1    6741    6756   -6774    6753       1
    6741    6756    6774    6783       1    6741    6756    6777    6786       1
    6738    6720    6741    6756       1    6738    6753   -6774    6756       1
    6738    6753    6774    6783       1    6729    6708    6726    6744       1
    6729    6750   -6762    6744       1    6726    6708    6729    6750       1
    6726    6744   -6762    6750       1    6720    6738    6753    6774       1
    6720    6741   -6756    6774       1    6720    6741    6756    6777       1
    6717    6702    6714    6729       1    6717    6738    6720    6741       1
    6717    6738    6753    6774       1    6714    6702    6717    6738       1
    6714    6729    6708    6726       1    6714    6729    6750    6762       1
    6708    6726    6744    6762       1    6708    6729   -6750    6762       1
    6705    6696    6699    6708       1    6705    6696    6702    6714       1
    6705    6696    6702    6717       1    6705    6720   -6738    6717       1
    6705    6720    6738    6753       1    6705    6720    6741    6756       1
    6702    6696    6699    6708       1    6702    6696    6705    6720       1
    6702    6714   -6729    6708       1    6702    6714    6729    6750       1
    6702    6717   -6738    6720       1    6702    6717    6738    6753       1
    6699    6696    6702    6714       1    6699    6696    6702    6717       1
    6699    6696    6705    6720       1    6699    6708    6726    6744       1
    6699    6708   -6729    6714       1    6699    6708    6729    6750       1
    6696    6699    6708    6726       1    6696    6699    6708    6729       1
    6696    6702   -6714    6729       1    6696    6702    6717    6738       1
    6696    6705   -6720    6738       1    6696    6705    6720    6741       1
    6885    6864    6882    6891       1    6885    6894   -6900    6891       1
    6882    6864    6885    6894       1    6882    6891   -6900    6894       1
    6864    6882    6891    6900       1    6864    6885   -6894    6900       1
    6861    6882    6864    6885       1    6861    6882    6891    6900       1
    6849    6828    6846    6861       1    6849    6864   -6882    6861       1
    6849    6864    6882    6891       1    6849    6864    6885    6894       1
    6846    6828    6849    6864       1    6846    6861   -6882    6864       1
    6846    6861    6882    6891       1    6837    6816    6834    6852       1
    6837    6858   -6870    6852       1    6834    6816    6837    6858       1
    6834    6852   -6870    6858       1    6828    6846    6861    6882       1
    6828    6849   -6864    6882       1    6828    6849    6864    6885       1
    6825    6810    6822    6837       1    6825    6846    6828    6849       1
    6825    6846    6861    6882       1    6822    6810    6825    6846       1
    6822    6837    6816    6834       1    6822    6837    6858    6870       1
    6816    6834    6852    6870       1    6816    6837   -6858    6870       1
    6813    6804    6807    6816       1    6813    6804    6810    6822       1
    6813    6804    6810    6825       1    6813    6828   -6846    6825       1
    6813    6828    6846    6861       1    6813    6828    6849    6864       1
    6810    6804    6807    6816       1    6810    6804    6813    6828       1
    6810    6822   -6837    6816       1    6810    6822    6837    6858       1
    6810    6825   -6846    6828       1    6810    6825    6846    6861       1
    6807    6804    6810    6822       1    6807    6804    6810    6825       1
    6807    6804    6813    6828       1    6807    6816    6834    6852       1
    6807    6816   -6837    6822       1    6807    6816    6837    6858       1
    6804    6807    6816    6834       1    6804    6807    6816    6837       1
    6804    6810   -6822    6837       1    6804    6810    6825    6846       1
    6804    6813   -6828    6846       1    6804    6813    6828    6849       1
    6993    6972    6990    6999       1    6993    7002   -7008    6999       1
    6990    6972    6993    7002       1    6990    6999   -7008    7002       1
    6972    6990    6999    7008       1    6972    6993   -7002    7008       1
    6969    6990    6972    6993       1    6969    6990    6999    7008       1
    6957    6936    6954    6969       1    6957    6972   -6990    6969       1
    6957    6972    6990    6999       1    6957    6972    6993    7002       1
    6954    6936    6957    6972       1    6954    6969   -6990    6972       1
    6954    6969    6990    6999       1    6945    6924    6942    6960       1
    6945    6966   -6978    6960       1    6942    6924    6945    6966       1
    6942    6960   -6978    6966       1    6936    6954    6969    6990       1
    6936    6957   -6972    6990       1    6936    6957    6972    6993       1
    6933    6918    6930    6945       1    6933    6954    6936    6957       1
    6933    6954    6969    6990       1    6930    6918    6933    6954       1
    6930    6945    6924    6942       1    6930    6945    6966    6978       1
    6924    6942    6960    6978       1    6924    6945   -6966    6978       1
    6921    6912    6915    6924       1    6921    6912    6918    6930       1
    6921    6912    6918    6933       1    6921    6936   -6954    6933       1
    6921    6936    6954    6969       1    6921    6936    6957    6972       1
    6918    6912    6915    6924       1    6918    6912    6921    6936       1
    6918    6930   -6945    6924       1    6918    6930    6945    6966       1
    6918    6933   -6954    6936       1    6918    6933    6954    6969       1
    6915    6912    6918    6930       1    6915    6912    6918    6933       1
    6915    6912    6921    6936       1    6915    6924    6942    6960       1
    6915    6924   -6945    6930       1    6915    6924    6945    6966       1
    6912    6915    6924    6942       1    6912    6915    6924    6945       1
    6912    6918   -6930    6945       1    6912    6918    6933    6954       1
    6912    6921   -6936    6954       1    6912    6921    6936    6957       1
    7101    7080    7098    7107       1    7101    7110   -7116    7107       1
    7098    7080    7101    7110       1    7098    7107   -7116    7110       1
    7080    7098    7107    7116       1    7080    7101   -7110    7116       1
    7077    7098    7080    7101       1    7077    7098    7107    7116       1
    7065    7044    7062    7077       1    7065    7080   -7098    7077       1
    7065    7080    7098    7107       1    7065    7080    7101    7110       1
    7062    7044    7065    7080       1    7062    7077   -7098    7080       1
    7062    7077    7098    7107       1    7053    7032    7050    7068       1
    7053    7074   -7086    7068       1    7050    7032    7053    7074       1
    7050    7068   -7086    7074       1    7044    7062    7077    7098       1
    7044    7065   -7080    7098       1    7044    7065    7080    7101       1
    7041    7026    7038    7053       1    7041    7062    7044    7065       1
    7041    7062    7077    7098       1    7038    7026    7041    7062       1
    7038    7053    7032    7050       1    7038    7053    7074    7086       1
    7032    7050    7068    7086       1    7032    7053   -7074    7086       1
    7029    7020    7023    7032       1    7029    7020    7026    7038       1
    7029    7020    7026    7041       1    7029    7044   -7062    7041       1
    7029    7044    7062    7077       1    7029    7044    7065    7080       1
    7026    7020    7023    7032       1    7026    7020    7029    7044       1
    7026    7038   -7053    7032       1    7026    7038    7053    7074       1
    7026    7041   -7062    7044       1    7026    7041    7062    7077       1
    7023    7020    7026    7038       1    7023    7020    7026    7041       1
    7023    7020    7029    7044       1    7023    7032    7050    7068       1
    7023    7032   -7053    7038       1    7023    7032    7053    7074       1
    7020    7023    7032    7050       1    7020    7023    7032    7053       1
    7020    7026   -7038    7053       1    7020    7026    7041    7062       1
    7020    7029   -7044    7062       1    7020    7029    7044    7065       1
    7209    7188    7206    7215       1    7209    7218   -7224    7215       1
    7206    7188    7209    7218       1    7206    7215   -7224    7218       1
    7188    7206    7215    7224       1    7188    7209   -7218    7224       1
    7185    7206    7188    7209       1    7185    7206    7215    7224       1
    7173    7152    7170    7185       1    7173    7188   -7206    7185       1
    7173    7188    7206    7215       1    7173    7188    7209    7218       1
    7170    7152    7173    7188       1    7170    7185   -7206    7188       1
    7170    7185    7206    7215       1    7161    7140    7158    7176       1
    7161    7182   -7194    7176       1    7158    7140    7161    7182       1
    7158    7176   -7194    7182       1    7152    7170    7185    7206       1
    7152    7173   -7188    7206       1    7152    7173    7188    7209       1
    7149    7134    7146    7161       1    7149    7170    7152    7173       1
    7149    7170    7185    7206       1    7146    7134    7149    7170       1
    7146    7161    7140    7158       1    7146    7161    7182    7194       1
    7140    7158    7176    7194       1    7140    7161   -7182    7194       1
    7137    7128    7131    7140       1    7137    7128    7134    7146       1
    7137    7128    7134    7149       1    7137    7152   -7170    7149       1
    7137    7152    7170    7185       1    7137    7152    7173    7188       1
    7134    7128    7131    7140       1    7134    7128    7137    7152       1
    7134    7146   -7161    7140       1    7134    7146    7161    7182       1
    7134    7149   -7170    7152       1    7134    7149    7170    7185       1
    7131    7128    7134    7146       1    7131    7128    7134    7149       1
    7131    7128    7137    7152       1    7131    7140    7158    7176       1
    7131    7140   -7161    7146       1    7131    7140    7161    7182       1
    7128    7131    7140    7158       1    7128    7131    7140    7161       1
    7128    7134   -7146    7161       1    7128    7134    7149    7170       1
    7128    7137   -7152    7170       1    7128    7137    7152    7173       1
    7317    7296    7314    7323       1    7317    7326   -7332    7323       1
    7314    7296    7317    7326       1    7314    7323   -7332    7326       1
    7296    7314    7323    7332       1    7296    7317   -7326    7332       1
    7293    7314    7296    7317       1    7293    7314    7323    7332       1
    7281    7260    7278    7293       1    7281    7296   -7314    7293       1
    7281    7296    7314    7323       1    7281    7296    7317    7326       1
    7278    7260    7281    7296       1    7278    7293   -7314    7296       1
    7278    7293    7314    7323       1    7269    7248    7266    7284       1
    7269    7290   -7302    7284       1    7266    7248    7269    7290       1
    7266    7284   -7302    7290       1    7260    7278    7293    7314       1
    7260    7281   -7296    7314       1    7260    7281    7296    7317       1
    7257    7242    7254    7269       1    7257    7278    7260    7281       1
    7257    7278    7293    7314       1    7254    7242    7257    7278       1
    7254    7269    7248    7266       1    7254    7269    7290    7302       1
    7248    7266    7284    7302       1    7248    7269   -7290    7302       1
    7245    7236    7239    7248       1    7245    7236    7242    7254       1
    7245    7236    7242    7257       1    7245    7260   -7278    7257       1
    7245    7260    7278    7293       1    7245    7260    7281    7296       1
    7242    7236    7239    7248       1    7242    7236    7245    7260       1
    7242    7254   -7269    7248       1    7242    7254    7269    7290       1
    7242    7257   -7278    7260       1    7242    7257    7278    7293       1
    7239    7236    7242    7254       1    7239    7236    7242    7257       1
    7239    7236    7245    7260       1    7239    7248    7266    7284       1
    7239    7248   -7269    7254       1    7239    7248    7269    7290       1
    7236    7239    7248    7266       1    7236    7239    7248    7269       1
    7236    7242   -7254    7269       1    7236    7242    7257    7278       1
    7236    7245   -7260    7278       1    7236    7245    7260    7281       1
    7425    7404    7422    7431       1    7425    7434   -7440    7431       1
    7422    7404    7425    7434       1    7422    7431   -7440    7434       1
    7404    7422    7431    7440       1    7404    7425   -7434    7440       1
    7401    7422    7404    7425       1    7401    7422    7431    7440       1
    7389    7368    7386    7401       1    7389    7404   -7422    7401       1
    7389    7404    7422    7431       1    7389    7404    7425    7434       1
    7386    7368    7389    7404       1    7386    7401   -7422    7404       1
    7386    7401    7422    7431       1    7377    7356    7374    7392       1
    7377    7398   -7410    7392       1    7374    7356    7377    7398       1
    7374    7392   -7410    7398       1    7368    7386    7401    7422       1
    7368    7389   -7404    7422       1    7368    7389    7404    7425       1
    7365    7350    7362    7377       1    7365    7386    7368    7389       1
    7365    7386    7401    7422       1    7362    7350    7365    7386       1
    7362    7377    7356    7374       1    7362    7377    7398    7410       1
    7356    7374    7392    7410       1    7356    7377   -7398    7410       1
    7353    7344    7347    7356       1    7353    7344    7350    7362       1
    7353    7344    7350    7365       1    7353    7368   -7386    7365       1
    7353    7368    7386    7401       1    7353    7368    7389    7404       1
    7350    7344    7347    7356       1    7350    7344    7353    7368       1
    7350    7362   -7377    7356       1    7350    7362    7377    7398       1
    7350    7365   -7386    7368       1    7350    7365    7386    7401       1
    7347    7344    7350    7362       1    7347    7344    7350    7365       1
    7347    7344    7353    7368       1    7347    7356    7374    7392       1
    7347    7356   -7377    7362       1    7347    7356    7377    7398       1
    7344    7347    7356    7374       1    7344    7347    7356    7377       1
    7344    7350   -7362    7377       1    7344    7350    7365    7386       1
    7344    7353   -7368    7386       1    7344    7353    7368    7389       1
    7533    7512    7530    7539       1    7533    7542   -7548    7539       1
    7530    7512    7533    7542       1    7530    7539   -7548    7542       1
    7512    7530    7539    7548       1    7512    7533   -7542    7548       1
    7509    7530    7512    7533       1    7509    7530    7539    7548       1
    7497    7476    7494    7509       1    7497    7512   -7530    7509       1
    7497    7512    7530    7539       1    7497    7512    7533    7542       1
    7494    7476    7497    7512       1    7494    7509   -7530    7512       1
    7494    7509    7530    7539       1    7485    7464    7482    7500       1
    7485    7506   -7518    7500       1    7482    7464    7485    7506       1
    7482    7500   -7518    7506       1    7476    7494    7509    7530       1
    7476    7497   -7512    7530       1    7476    7497    7512    7533       1
    7473    7458    7470    7485       1    7473    7494    7476    7497       1
    7473    7494    7509    7530       1    7470    7458    7473    7494       1
    7470    7485    7464    7482       1    7470    7485    7506    7518       1
    7464    7482    7500    7518       1    7464    7485   -7506    7518       1
    7461    7452    7455    7464       1    7461    7452    7458    7470       1
    7461    7452    7458    7473       1    7461    7476   -7494    7473       1
    7461    7476    7494    7509       1    7461    7476    7497    7512       1
    7458    7452    7455    7464       1    7458    7452    7461    7476       1
    7458    7470   -7485    7464       1    7458    7470    7485    7506       1
    7458    7473   -7494    7476       1    7458    7473    7494    7509       1
    7455    7452    7458    7470       1    7455    7452    7458    7473       1
    7455    7452    7461    7476       1    7455    7464    7482    7500       1
    7455    7464   -7485    7470       1    7455    7464    7485    7506       1
    7452    7455    7464    7482       1    7452    7455    7464    7485       1
    7452    7458   -7470    7485       1    7452    7458    7473    7494       1
    7452    7461   -7476    7494       1    7452    7461    7476    7497       1
    7641    7620    7638    7647       1    7641    7650   -7656    7647       1
    7638    7620    7641    7650       1    7638    7647   -7656    7650       1
    7620    7638    7647    7656       1    7620    7641   -7650    7656       1
    7617    7638    7620    7641       1    7617    7638    7647    7656       1
    7605    7584    7602    7617       1    7605    7620   -7638    7617       1
    7605    7620    7638    7647       1    7605    7620    7641    7650       1
    7602    7584    7605    7620       1    7602    7617   -7638    7620       1
    7602    7617    7638    7647       1    7593    7572    7590    7608       1
    7593    7614   -7626    7608       1    7590    7572    7593    7614       1
    7590    7608   -7626    7614       1    7584    7602    7617    7638       1
    7584    7605   -7620    7638       1    7584    7605    7620    7641       1
    7581    7566    7578    7593       1    7581    7602    7584    7605       1
    7581    7602    7617    7638       1    7578    7566    7581    7602       1
    7578    7593    7572    7590       1    7578    7593    7614    7626       1
    7572    7590    7608    7626       1    7572    7593   -7614    7626       1
    7569    7560    7563    7572       1    7569    7560    7566    7578       1
    7569    7560    7566    7581       1    7569    7584   -7602    7581       1
    7569    7584    7602    7617       1    7569    7584    7605    7620       1
    7566    7560    7563    7572       1    7566    7560    7569    7584       1
    7566    7578   -7593    7572       1    7566    7578    7593    7614       1
    7566    7581   -7602    7584       1    7566    7581    7602    7617       1
    7563    7560    7566    7578       1    7563    7560    7566    7581       1
    7563    7560    7569    7584       1    7563    7572    7590    7608       1
    7563    7572   -7593    7578       1    7563    7572    7593    7614       1
    7560    7563    7572    7590       1    7560    7563    7572    7593       1
    7560    7566   -7578    7593       1    7560    7566    7581    7602       1
    7560    7569   -7584    7602       1    7560    7569    7584    7605       1
    7749    7728    7746    7755       1    7749    7758   -7764    7755       1
    7746    7728    7749    7758       1    7746    7755   -7764    7758       1
    7728    7746    7755    7764       1    7728    7749   -7758    7764       1
    7725    7746    7728    7749       1    7725    7746    7755    7764       1
    7713    7692    7710    7725       1    7713    7728   -7746    7725       1
    7713    7728    7746    7755       1    7713    7728    7749    7758       1
    7710    7692    7713    7728       1    7710    7725   -7746    7728       1
    7710    7725    7746    7755       1    7701    7680    7698    7716       1
    7701    7722   -7734    7716       1    7698    7680    7701    7722       1
    7698    7716   -7734    7722       1    7692    7710    7725    7746       1
    7692    7713   -7728    7746       1    7692    7713    7728    7749       1
    7689    7674    7686    7701       1    7689    7710    7692    7713       1
    7689    7710    7725    7746       1    7686    7674    7689    7710       1
    7686    7701    7680    7698       1    7686    7701    7722    7734       1
    7680    7698    7716    7734       1    7680    7701   -7722    7734       1
    7677    7668    7671    7680       1    7677    7668    7674    7686       1
    7677    7668    7674    7689       1    7677    7692   -7710    7689       1
    7677    7692    7710    7725       1    7677    7692    7713    7728       1
    7674    7668    7671    7680       1    7674    7668    7677    7692       1
    7674    7686   -7701    7680       1    7674    7686    7701    7722       1
    7674    7689   -7710    7692       1    7674    7689    7710    7725       1
    7671    7668    7674    7686       1    7671    7668    7674    7689       1
    7671    7668    7677    7692       1    7671    7680    7698    7716       1
    7671    7680   -7701    7686       1    7671    7680    7701    7722       1
    7668    7671    7680    7698       1    7668    7671    7680    7701       1
    7668    7674   -7686    7701       1    7668    7674    7689    7710       1
    7668    7677   -7692    7710       1    7668    7677    7692    7713       1
    7857    7836    7854    7863       1    7857    7866   -7872    7863       1
    7854    7836    7857    7866       1    7854    7863   -7872    7866       1
    7836    7854    7863    7872       1    7836    7857   -7866    7872       1
    7833    7854    7836    7857       1    7833    7854    7863    7872       1
    7821    7800    7818    7833       1    7821    7836   -7854    7833       1
    7821    7836    7854    7863       1    7821    7836    7857    7866       1
    7818    7800    7821    7836       1    7818    7833   -7854    7836       1
    7818    7833    7854    7863       1    7809    7788    7806    7824       1
    7809    7830   -7842    7824       1    7806    7788    7809    7830       1
    7806    7824   -7842    7830       1    7800    7818    7833    7854       1
    7800    7821   -7836    7854       1    7800    7821    7836    7857       1
    7797    7782    7794    7809       1    7797    7818    7800    7821       1
    7797    7818    7833    7854       1    7794    7782    7797    7818       1
    7794    7809    7788    7806       1    7794    7809    7830    7842       1
    7788    7806    7824    7842       1    7788    7809   -7830    7842       1
    7785    7776    7779    7788       1    7785    7776    7782    7794       1
    7785    7776    7782    7797       1    7785    7800   -7818    7797       1
    7785    7800    7818    7833       1    7785    7800    7821    7836       1
    7782    7776    7779    7788       1    7782    7776    7785    7800       1
    7782    7794   -7809    7788       1    7782    7794    7809    7830       1
    7782    7797   -7818    7800       1    7782    7797    7818    7833       1
    7779    7776    7782    7794       1    7779    7776    7782    7797       1
    7779    7776    7785    7800       1    7779    7788    7806    7824       1
    7779    7788   -7809    7794       1    7779    7788    7809    7830       1
    7776    7779    7788    7806       1    7776    7779    7788    7809       1
    7776    7782   -7794    7809       1    7776    7782    7797    7818       1
    7776    7785   -7800    7818       1    7776    7785    7800    7821       1
    7965    7944    7962    7971       1    7965    7974   -7980    7971       1
    7962    7944    7965    7974       1    7962    7971   -7980    7974       1
    7944    7962    7971    7980       1    7944    7965   -7974    7980       1
    7941    7962    7944    7965       1    7941    7962    7971    7980       1
    7929    7908    7926    7941       1    7929    7944   -7962    7941       1
    7929    7944    7962    7971       1    7929    7944    7965    7974       1
    7926    7908    7929    7944       1    7926    7941   -7962    7944       1
    7926    7941    7962    7971       1    7917    7896    7914    7932       1
    7917    7938   -7950    7932       1    7914    7896    7917    7938       1
    7914    7932   -7950    7938       1    7908    7926    7941    7962       1
    7908    7929   -7944    7962       1    7908    7929    7944    7965       1
    7905    7890    7902    7917       1    7905    7926    7908    7929       1
    7905    7926    7941    7962       1    7902    7890    7905    7926       1
    7902    7917    7896    7914       1    7902    7917    7938    7950       1
    7896    7914    7932    7950       1    7896    7917   -7938    7950       1
    7893    7884    7887    7896       1    7893    7884    7890    7902       1
    7893    7884    7890    7905       1    7893    7908   -7926    7905       1
    7893    7908    7926    7941       1    7893    7908    7929    7944       1
    7890    7884    7887    7896       1    7890    7884    7893    7908       1
    7890    7902   -7917    7896       1    7890    7902    7917    7938       1
    7890    7905   -7926    7908       1    7890    7905    7926    7941       1
    7887    7884    7890    7902       1    7887    7884    7890    7905       1
    7887    7884    7893    7908       1    7887    7896    7914    7932       1
    7887    7896   -7917    7902       1    7887    7896    7917    7938       1
    7884    7887    7896    7914       1    7884    7887    7896    7917       1
    7884    7890   -7902    7917       1    7884    7890    7905    7926       1
    7884    7893   -7908    7926       1    7884    7893    7908    7929       1
    8073    8052    8070    8079       1    8073    8082   -8088    8079       1
    8070    8052    8073    8082       1    8070    8079   -8088    8082       1
    8052    8070    8079    8088       1    8052    8073   -8082    8088       1
    8049    8070    8052    8073       1    8049    8070    8079    8088       1
    8037    8016    8034    8049       1    8037    8052   -8070    8049       1
    8037    8052    8070    8079       1    8037    8052    8073    8082       1
    8034    8016    8037    8052       1    8034    8049   -8070    8052       1
    8034    8049    8070    8079       1    8025    8004    8022    8040       1
    8025    8046   -8058    8040       1    8022    8004    8025    8046       1
    8022    8040   -8058    8046       1    8016    8034    8049    8070       1
    8016    8037   -8052    8070       1    8016    8037    8052    8073       1
    8013    7998    8010    8025       1    8013    8034    8016    8037       1
    8013    8034    8049    8070       1    8010    7998    8013    8034       1
    8010    8025    8004    8022       1    8010    8025    8046    8058       1
    8004    8022    8040    8058       1    8004    8025   -8046    8058       1
    8001    7992    7995    8004       1    8001    7992    7998    8010       1
    8001    7992    7998    8013       1    8001    8016   -8034    8013       1
    8001    8016    8034    8049       1    8001    8016    8037    8052       1
    7998    7992    7995    8004       1    7998    7992    8001    8016       1
    7998    8010   -8025    8004       1    7998    8010    8025    8046       1
    7998    8013   -8034    8016       1    7998    8013    8034    8049       1
    7995    7992    7998    8010       1    7995    7992    7998    8013       1
    7995    7992    8001    8016       1    7995    8004    8022    8040       1
    7995    8004   -8025    8010       1    7995    8004    8025    8046       1
    7992    7995    8004    8022       1    7992    7995    8004    8025       1
    7992    7998   -8010    8025       1    7992    7998    8013    8034       1
    7992    8001   -8016    8034       1    7992    8001    8016    8037       1
    8181    8160    8178    8187       1    8181    8190   -8196    8187       1
    8178    8160    8181    8190       1    8178    8187   -8196    8190       1
    8160    8178    8187    8196       1    8160    8181   -8190    8196       1
    8157    8178    8160    8181       1    8157    8178    8187    8196       1
    8145    8124    8142    8157       1    8145    8160   -8178    8157       1
    8145    8160    8178    8187       1    8145    8160    8181    8190       1
    8142    8124    8145    8160       1    8142    8157   -8178    8160       1
    8142    8157    8178    8187       1    8133    8112    8130    8148       1
    8133    8154   -8166    8148       1    8130    8112    8133    8154       1
    8130    8148   -8166    8154       1    8124    8142    8157    8178       1
    8124    8145   -8160    8178       1    8124    8145    8160    8181       1
    8121    8106    8118    8133       1    8121    8142    8124    8145       1
    8121    8142    8157    8178       1    8118    8106    8121    8142       1
    8118    8133    8112    8130       1    8118    8133    8154    8166       1
    8112    8130    8148    8166       1    8112    8133   -8154    8166       1
    8109    8100    8103    8112       1    8109    8100    8106    8118       1
    8109    8100    8106    8121       1    8109    8124   -8142    8121       1
    8109    8124    8142    8157       1    8109    8124    8145    8160       1
    8106    8100    8103    8112       1    8106    8100    8109    8124       1
    8106    8118   -8133    8112       1    8106    8118    8133    8154       1
    8106    8121   -8142    8124       1    8106    8121    8142    8157       1
    8103    8100    8106    8118       1    8103    8100    8106    8121       1
    8103    8100    8109    8124       1    8103    8112    8130    8148       1
    8103    8112   -8133    8118       1    8103    8112    8133    8154       1
    8100    8103    8112    8130       1    8100    8103    8112    8133       1
    8100    8106   -8118    8133       1    8100    8106    8121    8142       1
    8100    8109   -8124    8142       1    8100    8109    8124    8145       1
    8289    8268    8286    8295       1    8289    8298   -8304    8295       1
    8286    8268    8289    8298       1    8286    8295   -8304    8298       1
    8268    8286    8295    8304       1    8268    8289   -8298    8304       1
    8265    8286    8268    8289       1    8265    8286    8295    8304       1
    8253    8232    8250    8265       1    8253    8268   -8286    8265       1
    8253    8268    8286    8295       1    8253    8268    8289    8298       1
    8250    8232    8253    8268       1    8250    8265   -8286    8268       1
    8250    8265    8286    8295       1    8241    8220    8238    8256       1
    8241    8262   -8274    8256       1    8238    8220    8241    8262       1
    8238    8256   -8274    8262       1    8232    8250    8265    8286       1
    8232    8253   -8268    8286       1    8232    8253    8268    8289       1
    8229    8214    8226    8241       1    8229    8250    8232    8253       1
    8229    8250    8265    8286       1    8226    8214    8229    8250       1
    8226    8241    8220    8238       1    8226    8241    8262    8274       1
    8220    8238    8256    8274       1    8220    8241   -8262    8274       1
    8217    8208    8211    8220       1    8217    8208    8214    8226       1
    8217    8208    8214    8229       1    8217    8232   -8250    8229       1
    8217    8232    8250    8265       1    8217    8232    8253    8268       1
    8214    8208    8211    8220       1    8214    8208    8217    8232       1
    8214    8226   -8241    8220       1    8214    8226    8241    8262       1
    8214    8229   -8250    8232       1    8214    8229    8250    8265       1
    8211    8208    8214    8226       1    8211    8208    8214    8229       1
    8211    8208    8217    8232       1    8211    8220    8238    8256       1
    8211    8220   -8241    8226       1    8211    8220    8241    8262       1
    8208    8211    8220    8238       1    8208    8211    8220    8241       1
    8208    8214   -8226    8241       1    8208    8214    8229    8250       1
    8208    8217   -8232    8250       1    8208    8217    8232    8253       1
    8397    8376    8394    8403       1    8397    8406   -8412    8403       1
    8394    8376    8397    8406       1    8394    8403   -8412    8406       1
    8376    8394    8403    8412       1    8376    8397   -8406    8412       1
    8373    8394    8376    8397       1    8373    8394    8403    8412       1
    8361    8340    8358    8373       1    8361    8376   -8394    8373       1
    8361    8376    8394    8403       1    8361    8376    8397    8406       1
    8358    8340    8361    8376       1    8358    8373   -8394    8376       1
    8358    8373    8394    8403       1    8349    8328    8346    8364       1
    8349    8370   -8382    8364       1    8346    8328    8349    8370       1
    8346    8364   -8382    8370       1    8340    8358    8373    8394       1
    8340    8361   -8376    8394       1    8340    8361    8376    8397       1
    8337    8322    8334    8349       1    8337    8358    8340    8361       1
    8337    8358    8373    8394       1    8334    8322    8337    8358       1
    8334    8349    8328    8346       1    8334    8349    8370    8382       1
    8328    8346    8364    8382       1    8328    8349   -8370    8382       1
    8325    8316    8319    8328       1    8325    8316    8322    8334       1
    8325    8316    8322    8337       1    8325    8340   -8358    8337       1
    8325    8340    8358    8373       1    8325    8340    8361    8376       1
    8322    8316    8319    8328       1    8322    8316    8325    8340       1
    8322    8334   -8349    8328       1    8322    8334    8349    8370       1
    8322    8337   -8358    8340       1    8322    8337    8358    8373       1
    8319    8316    8322    8334       1    8319    8316    8322    8337       1
    8319    8316    8325    8340       1    8319    8328    8346    8364       1
    8319    8328   -8349    8334       1    8319    8328    8349    8370       1
    8316    8319    8328    8346       1    8316    8319    8328    8349       1
    8316    8322   -8334    8349       1    8316    8322    8337    8358       1
    8316    8325   -8340    8358       1    8316    8325    8340    8361       1
    8505    8484    8502    8511       1    8505    8514   -8520    8511       1
    8502    8484    8505    8514       1    8502    8511   -8520    8514       1
    8484    8502    8511    8520       1    8484    8505   -8514    8520       1
    8481    8502    8484    8505       1    8481    8502    8511    8520       1
    8469    8448    8466    8481       1    8469    8484   -8502    8481       1
    8469    8484    8502    8511       1    8469    8484    8505    8514       1
    8466    8448    8469    8484       1    8466    8481   -8502    8484       1
    8466    8481    8502    8511       1    8457    8436    8454    8472       1
    8457    8478   -8490    8472       1    8454    8436    8457    8478       1
    8454    8472   -8490    8478       1    8448    8466    8481    8502       1
    8448    8469   -8484    8502       1    8448    8469    8484    8505       1
    8445    8430    8442    8457       1    8445    8466    8448    8469       1
    8445    8466    8481    8502       1    8442    8430    8445    8466       1
    8442    8457    8436    8454       1    8442    8457    8478    8490       1
    8436    8454    8472    8490       1    8436    8457   -8478    8490       1
    8433    8424    8427    8436       1    8433    8424    8430    8442       1
    8433    8424    8430    8445       1    8433    8448   -8466    8445       1
    8433    8448    8466    8481       1    8433    8448    8469    8484       1
    8430    8424    8427    8436       1    8430    8424    8433    8448       1
    8430    8442   -8457    8436       1    8430    8442    8457    8478       1
    8430    8445   -8466    8448       1    8430    8445    8466    8481       1
    8427    8424    8430    8442       1    8427    8424    8430    8445       1
    8427    8424    8433    8448       1    8427    8436    8454    8472       1
    8427    8436   -8457    8442       1    8427    8436    8457    8478       1
    8424    8427    8436    8454       1    8424    8427    8436    8457       1
    8424    8430   -8442    8457       1    8424    8430    8445    8466       1
    8424    8433   -8448    8466       1    8424    8433    8448    8469       1
    8613    8592    8610    8619       1    8613    8622   -8628    8619       1
    8610    8592    8613    8622       1    8610    8619   -8628    8622       1
    8592    8610    8619    8628       1    8592    8613   -8622    8628       1
    8589    8610    8592    8613       1    8589    8610    8619    8628       1
    8577    8556    8574    8589       1    8577    8592   -8610    8589       1
    8577    8592    8610    8619       1    8577    8592    8613    8622       1
    8574    8556    8577    8592       1    8574    8589   -8610    8592       1
    8574    8589    8610    8619       1    8565    8544    8562    8580       1
    8565    8586   -8598    8580       1    8562    8544    8565    8586       1
    8562    8580   -8598    8586       1    8556    8574    8589    8610       1
    8556    8577   -8592    8610       1    8556    8577    8592    8613       1
    8553    8538    8550    8565       1    8553    8574    8556    8577       1
    8553    8574    8589    8610       1    8550    8538    8553    8574       1
    8550    8565    8544    8562       1    8550    8565    8586    8598       1
    8544    8562    8580    8598       1    8544    8565   -8586    8598       1
    8541    8532    8535    8544       1    8541    8532    8538    8550       1
    8541    8532    8538    8553       1    8541    8556   -8574    8553       1
    8541    8556    8574    8589       1    8541    8556    8577    8592       1
    8538    8532    8535    8544       1    8538    8532    8541    8556       1
    8538    8550   -8565    8544       1    8538    8550    8565    8586       1
    8538    8553   -8574    8556       1    8538    8553    8574    8589       1
    8535    8532    8538    8550       1    8535    8532    8538    8553       1
    8535    8532    8541    8556       1    8535    8544    8562    8580       1
    8535    8544   -8565    8550       1    8535    8544    8565    8586       1
    8532    8535    8544    8562       1    8532    8535    8544    8565       1
    8532    8538   -8550    8565       1    8532    8538    8553    8574       1
    8532    8541   -8556    8574       1    8532    8541    8556    8577       1
    8721    8700    8718    8727       1    8721    8730   -8736    8727       1
    8718    8700    8721    8730       1    8718    8727   -8736    8730       1
    8700    8718    8727    8736       1    8700    8721   -8730    8736       1
    8697    8718    8700    8721       1    8697    8718    8727    8736       1
    8685    8664    8682    8697       1    8685    8700   -8718    8697       1
    8685    8700    8718    8727       1    8685    8700    8721    8730       1
    8682    8664    8685    8700       1    8682    8697   -8718    8700       1
    8682    8697    8718    8727       1    8673    8652    8670    8688       1
    8673    8694   -8706    8688       1    8670    8652    8673    8694       1
    8670    8688   -8706    8694       1    8664    8682    8697    8718       1
    8664    8685   -8700    8718       1    8664    8685    8700    8721       1
    8661    8646    8658    8673       1    8661    8682    8664    8685       1
    8661    8682    8697    8718       1    8658    8646    8661    8682       1
    8658    8673    8652    8670       1    8658    8673    8694    8706       1
    8652    8670    8688    8706       1    8652    8673   -8694    8706       1
    8649    8640    8643    8652       1    8649    8640    8646    8658       1
    8649    8640    8646    8661       1    8649    8664   -8682    8661       1
    8649    8664    8682    8697       1    8649    8664    8685    8700       1
    8646    8640    8643    8652       1    8646    8640    8649    8664       1
    8646    8658   -8673    8652       1    8646    8658    8673    8694       1
    8646    8661   -8682    8664       1    8646    8661    8682    8697       1
    8643    8640    8646    8658       1    8643    8640    8646    8661       1
    8643    8640    8649    8664       1    8643    8652    8670    8688       1
    8643    8652   -8673    8658       1    8643    8652    8673    8694       1
    8640    8643    8652    8670       1    8640    8643    8652    8673       1
    8640    8646   -8658    8673       1    8640    8646    8661    8682       1
    8640    8649   -8664    8682       1    8640    8649    8664    8685       1
    8829    8808    8826    8835       1    8829    8838   -8844    8835       1
    8826    8808    8829    8838       1    8826    8835   -8844    8838       1
    8808    8826    8835    8844       1    8808    8829   -8838    8844       1
    8805    8826    8808    8829       1    8805    8826    8835    8844       1
    8793    8772    8790    8805       1    8793    8808   -8826    8805       1
    8793    8808    8826    8835       1    8793    8808    8829    8838       1
    8790    8772    8793    8808       1    8790    8805   -8826    8808       1
    8790    8805    8826    8835       1    8781    8760    8778    8796       1
    8781    8802   -8814    8796       1    8778    8760    8781    8802       1
    8778    8796   -8814    8802       1    8772    8790    8805    8826       1
    8772    8793   -8808    8826       1    8772    8793    8808    8829       1
    8769    8754    8766    8781       1    8769    8790    8772    8793       1
    8769    8790    8805    8826       1    8766    8754    8769    8790       1
    8766    8781    8760    8778       1    8766    8781    8802    8814       1
    8760    8778    8796    8814       1    8760    8781   -8802    8814       1
    8757    8748    8751    8760       1    8757    8748    8754    8766       1
    8757    8748    8754    8769       1    8757    8772   -8790    8769       1
    8757    8772    8790    8805       1    8757    8772    8793    8808       1
    8754    8748    8751    8760       1    8754    8748    8757    8772       1
    8754    8766   -8781    8760       1    8754    8766    8781    8802       1
    8754    8769   -8790    8772       1    8754    8769    8790    8805       1
    8751    8748    8754    8766       1    8751    8748    8754    8769       1
    8751    8748    8757    8772       1    8751    8760    8778    8796       1
    8751    8760   -8781    8766       1    8751    8760    8781    8802       1
    8748    8751    8760    8778       1    8748    8751    8760    8781       1
    8748    8754   -8766    8781       1    8748    8754    8769    8790       1
    8748    8757   -8772    8790       1    8748    8757    8772    8793       1
    8937    8916    8934    8943       1    8937    8946   -8952    8943       1
    8934    8916    8937    8946       1    8934    8943   -8952    8946       1
    8916    8934    8943    8952       1    8916    8937   -8946    8952       1
    8913    8934    8916    8937       1    8913    8934    8943    8952       1
    8901    8880    8898    8913       1    8901    8916   -8934    8913       1
    8901    8916    8934    8943       1    8901    8916    8937    8946       1
    8898    8880    8901    8916       1    8898    8913   -8934    8916       1
    8898    8913    8934    8943       1    8889    8868    8886    8904       1
    8889    8910   -8922    8904       1    8886    8868    8889    8910       1
    8886    8904   -8922    8910       1    8880    8898    8913    8934       1
    8880    8901   -8916    8934       1    8880    8901    8916    8937       1
    8877    8862    8874    8889       1    8877    8898    8880    8901       1
    8877    8898    8913    8934       1    8874    8862    8877    8898       1
    8874    8889    8868    8886       1    8874    8889    8910    8922       1
    8868    8886    8904    8922       1    8868    8889   -8910    8922       1
    8865    8856    8859    8868       1    8865    8856    8862    8874       1
    8865    8856    8862    8877       1    8865    8880   -8898    8877       1
    8865    8880    8898    8913       1    8865    8880    8901    8916       1
    8862    8856    8859    8868       1    8862    8856    8865    8880       1
    8862    8874   -8889    8868       1    8862    8874    8889    8910       1
    8862    8877   -8898    8880       1    8862    8877    8898    8913       1
    8859    8856    8862    8874       1    8859    8856    8862    8877       1
    8859    8856    8865    8880       1    8859    8868    8886    8904       1
    8859    8868   -8889    8874       1    8859    8868    8889    8910       1
    8856    8859    8868    8886       1    8856    8859    8868    8889       1
    8856    8862   -8874    8889       1    8856    8862    8877    8898       1
    8856    8865   -8880    8898       1    8856    8865    8880    8901       1
    9045    9024    9042    9051       1    9045    9054   -9060    9051       1
    9042    9024    9045    9054       1    9042    9051   -9060    9054       1
    9024    9042    9051    9060       1    9024    9045   -9054    9060       1
    9021    9042    9024    9045       1    9021    9042    9051    9060       1
    9009    8988    9006    9021       1    9009    9024   -9042    9021       1
    9009    9024    9042    9051       1    9009    9024    9045    9054       1
    9006    8988    9009    9024       1    9006    9021   -9042    9024       1
    9006    9021    9042    9051       1    8997    8976    8994    9012       1
    8997    9018   -9030    9012       1    8994    8976    8997    9018       1
    8994    9012   -9030    9018       1    8988    9006    9021    9042       1
    8988    9009   -9024    9042       1    8988    9009    9024    9045       1
    8985    8970    8982    8997       1    8985    9006    8988    9009       1
    8985    9006    9021    9042       1    8982    8970    8985    9006       1
    8982    8997    8976    8994       1    8982    8997    9018    9030       1
    8976    8994    9012    9030       1    8976    8997   -9018    9030       1
    8973    8964    8967    8976       1    8973    8964    8970    8982       1
    8973    8964    8970    8985       1    8973    8988   -9006    8985       1
    8973    8988    9006    9021       1    8973    8988    9009    9024       1
    8970    8964    8967    8976       1    8970    8964    8973    8988       1
    8970    8982   -8997    8976       1    8970    8982    8997    9018       1
    8970    8985   -9006    8988       1    8970    8985    9006    9021       1
    8967    8964    8970    8982       1    8967    8964    8970    8985       1
    8967    8964    8973    8988       1    8967    8976    8994    9012       1
    8967    8976   -8997    8982       1    8967    8976    8997    9018       1
    8964    8967    8976    8994       1    8964    8967    8976    8997       1
    8964    8970   -8982    8997       1    8964    8970    8985    9006       1
    8964    8973   -8988    9006       1    8964    8973    8988    9009       1
    9153    9132    9150    9159       1    9153    9162   -9168    9159       1
    9150    9132    9153    9162       1    9150    9159   -9168    9162       1
    9132    9150    9159    9168       1    9132    9153   -9162    9168       1
    9129    9150    9132    9153       1    9129    9150    9159    9168       1
    9117    9096    9114    9129       1    9117    9132   -9150    9129       1
    9117    9132    9150    9159       1    9117    9132    9153    9162       1
    9114    9096    9117    9132       1    9114    9129   -9150    9132       1
    9114    9129    9150    9159       1    9105    9084    9102    9120       1
    9105    9126   -9138    9120       1    9102    9084    9105    9126       1
    9102    9120   -9138    9126       1    9096    9114    9129    9150       1
    9096    9117   -9132    9150       1    9096    9117    9132    9153       1
    9093    9078    9090    9105       1    9093    9114    9096    9117       1
    9093    9114    9129    9150       1    9090    9078    9093    9114       1
    9090    9105    9084    9102       1    9090    9105    9126    9138       1
    9084    9102    9120    9138       1    9084    9105   -9126    9138       1
    9081    9072    9075    9084       1    9081    9072    9078    9090       1
    9081    9072    9078    9093       1    9081    9096   -9114    9093       1
    9081    9096    9114    9129       1    9081    9096    9117    9132       1
    9078    9072    9075    9084       1    9078    9072    9081    9096       1
    9078    9090   -9105    9084       1    9078    9090    9105    9126       1
    9078    9093   -9114    9096       1    9078    9093    9114    9129       1
    9075    9072    9078    9090       1    9075    9072    9078    9093       1
    9075    9072    9081    9096       1    9075    9084    9102    9120       1
    9075    9084   -9105    9090       1    9075    9084    9105    9126       1
    9072    9075    9084    9102       1    9072    9075    9084    9105       1
    9072    9078   -9090    9105       1    9072    9078    9093    9114       1
    9072    9081   -9096    9114       1    9072    9081    9096    9117       1
    9261    9240    9258    9267       1    9261    9270   -9276    9267       1
    9258    9240    9261    9270       1    9258    9267   -9276    9270       1
    9240    9258    9267    9276       1    9240    9261   -9270    9276       1
    9237    9258    9240    9261       1    9237    9258    9267    9276       1
    9225    9204    9222    9237       1    9225    9240   -9258    9237       1
    9225    9240    9258    9267       1    9225    9240    9261    9270       1
    9222    9204    9225    9240       1    9222    9237   -9258    9240       1
    9222    9237    9258    9267       1    9213    9192    9210    9228       1
    9213    9234   -9246    9228       1    9210    9192    9213    9234       1
    9210    9228   -9246    9234       1    9204    9222    9237    9258       1
    9204    9225   -9240    9258       1    9204    9225    9240    9261       1
    9201    9186    9198    9213       1    9201    9222    9204    9225       1
    9201    9222    9237    9258       1    9198    9186    9201    9222       1
    9198    9213    9192    9210       1    9198    9213    9234    9246       1
    9192    9210    9228    9246       1    9192    9213   -9234    9246       1
    9189    9180    9183    9192       1    9189    9180    9186    9198       1
    9189    9180    9186    9201       1    9189    9204   -9222    9201       1
    9189    9204    9222    9237       1    9189    9204    9225    9240       1
    9186    9180    9183    9192       1    9186    9180    9189    9204       1
    9186    9198   -9213    9192       1    9186    9198    9213    9234       1
    9186    9201   -9222    9204       1    9186    9201    9222    9237       1
    9183    9180    9186    9198       1    9183    9180    9186    9201       1
    9183    9180    9189    9204       1    9183    9192    9210    9228       1
    9183    9192   -9213    9198       1    9183    9192    9213    9234       1
    9180    9183    9192    9210       1    9180    9183    9192    9213       1
    9180    9186   -9198    9213       1    9180    9186    9201    9222       1
    9180    9189   -9204    9222       1    9180    9189    9204    9225       1
    9369    9348    9366    9375       1    9369    9378   -9384    9375       1
    9366    9348    9369    9378       1    9366    9375   -9384    9378       1
    9348    9366    9375    9384       1    9348    9369   -9378    9384       1
    9345    9366    9348    9369       1    9345    9366    9375    9384       1
    9333    9312    9330    9345       1    9333    9348   -9366    9345       1
    9333    9348    9366    9375       1    9333    9348    9369    9378       1
    9330    9312    9333    9348       1    9330    9345   -9366    9348       1
    9330    9345    9366    9375       1    9321    9300    9318    9336       1
    9321    9342   -9354    9336       1    9318    9300    9321    9342       1
    9318    9336   -9354    9342       1    9312    9330    9345    9366       1
    9312    9333   -9348    9366       1    9312    9333    9348    9369       1
    9309    9294    9306    9321       1    9309    9330    9312    9333       1
    9309    9330    9345    9366       1    9306    9294    9309    9330       1
    9306    9321    9300    9318       1    9306    9321    9342    9354       1
    9300    9318    9336    9354       1    9300    9321   -9342    9354       1
    9297    9288    9291    9300       1    9297    9288    9294    9306       1
    9297    9288    9294    9309       1    9297    9312   -9330    9309       1
    9297    9312    9330    9345       1    9297    9312    9333    9348       1
    9294    9288    9291    9300       1    9294    9288    9297    9312       1
    9294    9306   -9321    9300       1    9294    9306    9321    9342       1
    9294    9309   -9330    9312       1    9294    9309    9330    9345       1
    9291    9288    9294    9306       1    9291    9288    9294    9309       1
    9291    9288    9297    9312       1    9291    9300    9318    9336       1
    9291    9300   -9321    9306       1    9291    9300    9321    9342       1
    9288    9291    9300    9318       1    9288    9291    9300    9321       1
    9288    9294   -9306    9321       1    9288    9294    9309    9330       1
    9288    9297   -9312    9330       1    9288    9297    9312    9333       1
    9477    9456    9474    9483       1    9477    9486   -9492    9483       1
    9474    9456    9477    9486       1    9474    9483   -9492    9486       1
    9456    9474    9483    9492       1    9456    9477   -9486    9492       1
    9453    9474    9456    9477       1    9453    9474    9483    9492       1
    9441    9420    9438    9453       1    9441    9456   -9474    9453       1
    9441    9456    9474    9483       1    9441    9456    9477    9486       1
    9438    9420    9441    9456       1    9438    9453   -9474    9456       1
    9438    9453    9474    9483       1    9429    9408    9426    9444       1
    9429    9450   -9462    9444       1    9426    9408    9429    9450       1
    9426    9444   -9462    9450       1    9420    9438    9453    9474       1
    9420    9441   -9456    9474       1    9420    9441    9456    9477       1
    9417    9402    9414    9429       1    9417    9438    9420    9441       1
    9417    9438    9453    9474       1    9414    9402    9417    9438       1
    9414    9429    9408    9426       1    9414    9429    9450    9462       1
    9408    9426    9444    9462       1    9408    9429   -9450    9462       1
    9405    9396    9399    9408       1    9405    9396    9402    9414       1
    9405    9396    9402    9417       1    9405    9420   -9438    9417       1
    9405    9420    9438    9453       1    9405    9420    9441    9456       1
    9402    9396    9399    9408       1    9402    9396    9405    9420       1
    9402    9414   -9429    9408       1    9402    9414    9429    9450       1
    9402    9417   -9438    9420       1    9402    9417    9438    9453       1
    9399    9396    9402    9414       1    9399    9396    9402    9417       1
    9399    9396    9405    9420       1    9399    9408    9426    9444       1
    9399    9408   -9429    9414       1    9399    9408    9429    9450       1
    9396    9399    9408    9426       1    9396    9399    9408    9429       1
    9396    9402   -9414    9429       1    9396    9402    9417    9438       1
    9396    9405   -9420    9438       1    9396    9405    9420    9441       1
    9585    9564    9582    9591       1    9585    9594   -9600    9591       1
    9582    9564    9585    9594       1    9582    9591   -9600    9594       1
    9564    9582    9591    9600       1    9564    9585   -9594    9600       1
    9561    9582    9564    9585       1    9561    9582    9591    9600       1
    9549    9528    9546    9561       1    9549    9564   -9582    9561       1
    9549    9564    9582    9591       1    9549    9564    9585    9594       1
    9546    9528    9549    9564       1    9546    9561   -9582    9564       1
    9546    9561    9582    9591       1    9537    9516    9534    9552       1
    9537    9558   -9570    9552       1    9534    9516    9537    9558       1
    9534    9552   -9570    9558       1    9528    9546    9561    9582       1
    9528    9549   -9564    9582       1    9528    9549    9564    9585       1
    9525    9510    9522    9537       1    9525    9546    9528    9549       1
    9525    9546    9561    9582       1    9522    9510    9525    9546       1
    9522    9537    9516    9534       1    9522    9537    9558    9570       1
    9516    9534    9552    9570       1    9516    9537   -9558    9570       1
    9513    9504    9507    9516       1    9513    9504    9510    9522       1
    9513    9504    9510    9525       1    9513    9528   -9546    9525       1
    9513    9528    9546    9561       1    9513    9528    9549    9564       1
    9510    9504    9507    9516       1    9510    9504    9513    9528       1
    9510    9522   -9537    9516       1    9510    9522    9537    9558       1
    9510    9525   -9546    9528       1    9510    9525    9546    9561       1
    9507    9504    9510    9522       1    9507    9504    9510    9525       1
    9507    9504    9513    9528       1    9507    9516    9534    9552       1
    9507    9516   -9537    9522       1    9507    9516    9537    9558       1
    9504    9507    9516    9534       1    9504    9507    9516    9537       1
    9504    9510   -9522    9537       1    9504    9510    9525    9546       1
    9504    9513   -9528    9546       1    9504    9513    9528    9549       1
    9693    9672    9690    9699       1    9693    9702   -9708    9699       1
    9690    9672    9693    9702       1    9690    9699   -9708    9702       1
    9672    9690    9699    9708       1    9672    9693   -9702    9708       1
    9669    9690    9672    9693       1    9669    9690    9699    9708       1
    9657    9636    9654    9669       1    9657    9672   -9690    9669       1
    9657    9672    9690    9699       1    9657    9672    9693    9702       1
    9654    9636    9657    9672       1    9654    9669   -9690    9672       1
    9654    9669    9690    9699       1    9645    9624    9642    9660       1
    9645    9666   -9678    9660       1    9642    9624    9645    9666       1
    9642    9660   -9678    9666       1    9636    9654    9669    9690       1
    9636    9657   -9672    9690       1    9636    9657    9672    9693       1
    9633    9618    9630    9645       1    9633    9654    9636    9657       1
    9633    9654    9669    9690       1    9630    9618    9633    9654       1
    9630    9645    9624    9642       1    9630    9645    9666    9678       1
    9624    9642    9660    9678       1    9624    9645   -9666    9678       1
    9621    9612    9615    9624       1    9621    9612    9618    9630       1
    9621    9612    9618    9633       1    9621    9636   -9654    9633       1
    9621    9636    9654    9669       1    9621    9636    9657    9672       1
    9618    9612    9615    9624       1    9618    9612    9621    9636       1
    9618    9630   -9645    9624       1    9618    9630    9645    9666       1
    9618    9633   -9654    9636       1    9618    9633    9654    9669       1
    9615    9612    9618    9630       1    9615    9612    9618    9633       1
    9615    9612    9621    9636       1    9615    9624    9642    9660       1
    9615    9624   -9645    9630       1    9615    9624    9645    9666       1
    9612    9615    9624    9642       1    9612    9615    9624    9645       1
    9612    9618   -9630    9645       1    9612    9618    9633    9654       1
    9612    9621   -9636    9654       1    9612    9621    9636    9657       1
    9801    9780    9798    9807       1    9801    9810   -9816    9807       1
    9798    9780    9801    9810       1    9798    9807   -9816    9810       1
    9780    9798    9807    9816       1    9780    9801   -9810    9816       1
    9777    9798    9780    9801       1    9777    9798    9807    9816       1
    9765    9744    9762    9777       1    9765    9780   -9798    9777       1
    9765    9780    9798    9807       1    9765    9780    9801    9810       1
    9762    9744    9765    9780       1    9762    9777   -9798    9780       1
    9762    9777    9798    9807       1    9753    9732    9750    9768       1
    9753    9774   -9786    9768       1    9750    9732    9753    9774       1
    9750    9768   -9786    9774       1    9744    9762    9777    9798       1
    9744    9765   -9780    9798       1    9744    9765    9780    9801       1
    9741    9726    9738    9753       1    9741    9762    9744    9765       1
    9741    9762    9777    9798       1    9738    9726    9741    9762       1
    9738    9753    9732    9750       1    9738    9753    9774    9786       1
    9732    9750    9768    9786       1    9732    9753   -9774    9786       1
    9729    9720    9723    9732       1    9729    9720    9726    9738       1
    9729    9720    9726    9741       1    9729    9744   -9762    9741       1
    9729    9744    9762    9777       1    9729    9744    9765    9780       1
    9726    9720    9723    9732       1    9726    9720    9729    9744       1
    9726    9738   -9753    9732       1    9726    9738    9753    9774       1
    9726    9741   -9762    9744       1    9726    9741    9762    9777       1
    9723    9720    9726    9738       1    9723    9720    9726    9741       1
    9723    9720    9729    9744       1    9723    9732    9750    9768       1
    9723    9732   -9753    9738       1    9723    9732    9753    9774       1
    9720    9723    9732    9750       1    9720    9723    9732    9753       1
    9720    9726   -9738    9753       1    9720    9726    9741    9762       1
    9720    9729   -9744    9762       1    9720    9729    9744    9765       1
    9909    9888    9906    9915       1    9909    9918   -9924    9915       1
    9906    9888    9909    9918       1    9906    9915   -9924    9918       1
    9888    9906    9915    9924       1    9888    9909   -9918    9924       1
    9885    9906    9888    9909       1    9885    9906    9915    9924       1
    9873    9852    9870    9885       1    9873    9888   -9906    9885       1
    9873    9888    9906    9915       1    9873    9888    9909    9918       1
    9870    9852    9873    9888       1    9870    9885   -9906    9888       1
    9870    9885    9906    9915       1    9861    9840    9858    9876       1
    9861    9882   -9894    9876       1    9858    9840    9861    9882       1
    9858    9876   -9894    9882       1    9852    9870    9885    9906       1
    9852    9873   -9888    9906       1    9852    9873    9888    9909       1
    9849    9834    9846    9861       1    9849    9870    9852    9873       1
    9849    9870    9885    9906       1    9846    9834    9849    9870       1
    9846    9861    9840    9858       1    9846    9861    9882    9894       1
    9840    9858    9876    9894       1    9840    9861   -9882    9894       1
    9837    9828    9831    9840       1    9837    9828    9834    9846       1
    9837    9828    9834    9849       1    9837    9852   -9870    9849       1
    9837    9852    9870    9885       1    9837    9852    9873    9888       1
    9834    9828    9831    9840       1    9834    9828    9837    9852       1
    9834    9846   -9861    9840       1    9834    9846    9861    9882       1
    9834    9849   -9870    9852       1    9834    9849    9870    9885       1
    9831    9828    9834    9846       1    9831    9828    9834    9849       1
    9831    9828    9837    9852       1    9831    9840    9858    9876       1
    9831    9840   -9861    9846       1    9831    9840    9861    9882       1
    9828    9831    9840    9858       1    9828    9831    9840    9861       1
    9828    9834   -9846    9861       1    9828    9834    9849    9870       1
    9828    9837   -9852    9870       1    9828    9837    9852    9873       1
   10017    9996   10014   10023       1   10017   10026  -10032   10023       1
   10014    9996   10017   10026       1   10014   10023  -10032   10026       1
    9996   10014   10023   10032       1    9996   10017  -10026   10032       1
    9993   10014    9996   10017       1    9993   10014   10023   10032       1
    9981    9960    9978    9993       1    9981    9996  -10014    9993       1
    9981    9996   10014   10023       1    9981    9996   10017   10026       1
    9978    9960    9981    9996       1    9978    9993  -10014    9996       1
    9978    9993   10014   10023       1    9969    9948    9966    9984       1
    9969    9990  -10002    9984       1    9966    9948    9969    9990       1
    9966    9984  -10002    9990       1    9960    9978    9993   10014       1
    9960    9981   -9996   10014       1    9960    9981    9996   10017       1
    9957    9942    9954    9969       1    9957    9978    9960    9981       1
    9957    9978    9993   10014       1    9954    9942    9957    9978       1
    9954    9969    9948    9966       1    9954    9969    9990   10002       1
    9948    9966    9984   10002       1    9948    9969   -9990   10002       1
    9945    9936    9939    9948       1    9945    9936    9942    9954       1
    9945    9936    9942    9957       1    9945    9960   -9978    9957       1
    9945    9960    9978    9993       1    9945    9960    9981    9996       1
    9942    9936    9939    9948       1    9942    9936    9945    9960       1
    9942    9954   -9969    9948       1    9942    9954    9969    9990       1
    9942    9957   -9978    9960       1    9942    9957    9978    9993       1
    9939    9936    9942    9954       1    9939    9936    9942    9957       1
    9939    9936    9945    9960       1    9939    9948    9966    9984       1
    9939    9948   -9969    9954       1    9939    9948    9969    9990       1
    9936    9939    9948    9966       1    9936    9939    9948    9969       1
    9936    9942   -9954    9969       1    9936    9942    9957    9978       1
    9936    9945   -9960    9978       1    9936    9945    9960    9981       1
   10125   10104   10122   10131       1   10125   10134  -10140   10131       1
   10122   10104   10125   10134       1   10122   10131  -10140   10134       1
   10104   10122   10131   10140       1   10104   10125  -10134   10140       1
   10101   10122   10104   10125       1   10101   10122   10131   10140       1
   10089   10068   10086   10101       1   10089   10104  -10122   10101       1
   10089   10104   10122   10131       1   10089   10104   10125   10134       1
   10086   10068   10089   10104       1   10086   10101  -10122   10104       1
   10086   10101   10122   10131       1   10077   10056   10074   10092       1
   10077   10098  -10110   10092       1   10074   10056   10077   10098       1
   10074   10092  -10110   10098       1   10068   10086   10101   10122       1
   10068   10089  -10104   10122       1   10068   10089   10104   10125       1
   10065   10050   10062   10077       1   10065   10086   10068   10089       1
   10065   10086   10101   10122       1   10062   10050   10065   10086       1
   10062   10077   10056   10074       1   10062   10077   10098   10110       1
   10056   10074   10092   10110       1   10056   10077  -10098   10110       1
   10053   10044   10047   10056       1   10053   10044   10050   10062       1
   10053   10044   10050   10065       1   10053   10068  -10086   10065       1
   10053   10068   10086   10101       1   10053   10068   10089   10104       1
   10050   10044   10047   10056       1   10050   10044   10053   10068       1
   10050   10062  -10077   10056       1   10050   10062   10077   10098       1
   10050   10065  -10086   10068       1   10050   10065   10086   10101       1
   10047   10044   10050   10062       1   10047   10044   10050   10065       1
   10047   10044   10053   10068       1   10047   10056   10074   10092       1
   10047   10056  -10077   10062       1   10047   10056   10077   10098       1
   10044   10047   10056   10074       1   10044   10047   10056   10077       1
   10044   10050  -10062   10077       1   10044   10050   10065   10086       1
   10044   10053  -10068   10086       1   10044   10053   10068   10089       1
   10233   10212   10230   10239       1   10233   10242  -10248   10239       1
   10230   10212   10233   10242       1   10230   10239  -10248   10242       1
   10212   10230   10239   10248       1   10212   10233  -10242   10248       1
   10209   10230   10212   10233       1   10209   10230   10239   10248       1
   10197   10176   10194   10209       1   10197   10212  -10230   10209       1
   10197   10212   10230   10239       1   10197   10212   10233   10242       1
   10194   10176   10197   10212       1   10194   10209  -10230   10212       1
   10194   10209   10230   10239       1   10185   10164   10182   10200       1
   10185   10206  -10218   10200       1   10182   10164   10185   10206       1
   10182   10200  -10218   10206       1   10176   10194   10209   10230       1
   10176   10197  -10212   10230       1   10176   10197   10212   10233       1
   10173   10158   10170   10185       1   10173   10194   10176   10197       1
   10173   10194   10209   10230       1   10170   10158   10173   10194       1
   10170   10185   10164   10182       1   10170   10185   10206   10218       1
   10164   10182   10200   10218       1   10164   10185  -10206   10218       1
   10161   10152   10155   10164       1   10161   10152   10158   10170       1
   10161   10152   10158   10173       1   10161   10176  -10194   10173       1
   10161   10176   10194   10209       1   10161   10176   10197   10212       1
   10158   10152   10155   10164       1   10158   10152   10161   10176       1
   10158   10170  -10185   10164       1   10158   10170   10185   10206       1
   10158   10173  -10194   10176       1   10158   10173   10194   10209       1
   10155   10152   10158   10170       1   10155   10152   10158   10173       1
   10155   10152   10161   10176       1   10155   10164   10182   10200       1
   10155   10164  -10185   10170       1   10155   10164   10185   10206       1
   10152   10155   10164   10182       1   10152   10155   10164   10185       1
   10152   10158  -10170   10185       1   10152   10158   10173   10194       1
   10152   10161  -10176   10194       1   10152   10161   10176   10197       1
   10341   10320   10338   10347       1   10341   10350  -10356   10347       1
   10338   10320   10341   10350       1   10338   10347  -10356   10350       1
   10320   10338   10347   10356       1   10320   10341  -10350   10356       1
   10317   10338   10320   10341       1   10317   10338   10347   10356       1
   10305   10284   10302   10317       1   10305   10320  -10338   10317       1
   10305   10320   10338   10347       1   10305   10320   10341   10350       1
   10302   10284   10305   10320       1   10302   10317  -10338   10320       1
   10302   10317   10338   10347       1   10293   10272   10290   10308       1
   10293   10314  -10326   10308       1   10290   10272   10293   10314       1
   10290   10308  -10326   10314       1   10284   10302   10317   10338       1
   10284   10305  -10320   10338       1   10284   10305   10320   10341       1
   10281   10266   10278   10293       1   10281   10302   10284   10305       1
   10281   10302   10317   10338       1   10278   10266   10281   10302       1
   10278   10293   10272   10290       1   10278   10293   10314   10326       1
   10272   10290   10308   10326       1   10272   10293  -10314   10326       1
   10269   10260   10263   10272       1   10269   10260   10266   10278       1
   10269   10260   10266   10281       1   10269   10284  -10302   10281       1
   10269   10284   10302   10317       1   10269   10284   10305   10320       1
   10266   10260   10263   10272       1   10266   10260   10269   10284       1
   10266   10278  -10293   10272       1   10266   10278   10293   10314       1
   10266   10281  -10302   10284       1   10266   10281   10302   10317       1
   10263   10260   10266   10278       1   10263   10260   10266   10281       1
   10263   10260   10269   10284       1   10263   10272   10290   10308       1
   10263   10272  -10293   10278       1   10263   10272   10293   10314       1
   10260   10263   10272   10290       1   10260   10263   10272   10293       1
   10260   10266  -10278   10293       1   10260   10266   10281   10302       1
   10260   10269  -10284   10302       1   10260   10269   10284   10305       1
   10449   10428   10446   10455       1   10449   10458  -10464   10455       1
   10446   10428   10449   10458       1   10446   10455  -10464   10458       1
   10428   10446   10455   10464       1   10428   10449  -10458   10464       1
   10425   10446   10428   10449       1   10425   10446   10455   10464       1
   10413   10392   10410   10425       1   10413   10428  -10446   10425       1
   10413   10428   10446   10455       1   10413   10428   10449   10458       1
   10410   10392   10413   10428       1   10410   10425  -10446   10428       1
   10410   10425   10446   10455       1   10401   10380   10398   10416       1
   10401   10422  -10434   10416       1   10398   10380   10401   10422       1
   10398   10416  -10434   10422       1   10392   10410   10425   10446       1
   10392   10413  -10428   10446       1   10392   10413   10428   10449       1
   10389   10374   10386   10401       1   10389   10410   10392   10413       1
   10389   10410   10425   10446       1   10386   10374   10389   10410       1
   10386   10401   10380   10398       1   10386   10401   10422   10434       1
   10380   10398   10416   10434       1   10380   10401  -10422   10434       1
   10377   10368   10371   10380       1   10377   10368   10374   10386       1
   10377   10368   10374   10389       1   10377   10392  -10410   10389       1
   10377   10392   10410   10425       1   10377   10392   10413   10428       1
   10374   10368   10371   10380       1   10374   10368   10377   10392       1
   10374   10386  -10401   10380       1   10374   10386   10401   10422       1
   10374   10389  -10410   10392       1   10374   10389   10410   10425       1
   10371   10368   10374   10386       1   10371   10368   10374   10389       1
   10371   10368   10377   10392       1   10371   10380   10398   10416       1
   10371   10380  -10401   10386       1   10371   10380   10401   10422       1
   10368   10371   10380   10398       1   10368   10371   10380   10401       1
   10368   10374  -10386   10401       1   10368   10374   10389   10410       1
   10368   10377  -10392   10410       1   10368   10377   10392   10413       1
   10557   10536   10554   10563       1   10557   10566  -10572   10563       1
   10554   10536   10557   10566       1   10554   10563  -10572   10566       1
   10536   10554   10563   10572       1   10536   10557  -10566   10572       1
   10533   10554   10536   10557       1   10533   10554   10563   10572       1
   10521   10500   10518   10533       1   10521   10536  -10554   10533       1
   10521   10536   10554   10563       1   10521   10536   10557   10566       1
   10518   10500   10521   10536       1   10518   10533  -10554   10536       1
   10518   10533   10554   10563       1   10509   10488   10506   10524       1
   10509   10530  -10542   10524       1   10506   10488   10509   10530       1
   10506   10524  -10542   10530       1   10500   10518   10533   10554       1
   10500   10521  -10536   10554       1   10500   10521   10536   10557       1
   10497   10482   10494   10509       1   10497   10518   10500   10521       1
   10497   10518   10533   10554       1   10494   10482   10497   10518       1
   10494   10509   10488   10506       1   10494   10509   10530   10542       1
   10488   10506   10524   10542       1   10488   10509  -10530   10542       1
   10485   10476   10479   10488       1   10485   10476   10482   10494       1
   10485   10476   10482   10497       1   10485   10500  -10518   10497       1
   10485   10500   10518   10533       1   10485   10500   10521   10536       1
   10482   10476   10479   10488       1   10482   10476   10485   10500       1
   10482   10494  -10509   10488       1   10482   10494   10509   10530       1
   10482   10497  -10518   10500       1   10482   10497   10518   10533       1
   10479   10476   10482   10494       1   10479   10476   10482   10497       1
   10479   10476   10485   10500       1   10479   10488   10506   10524       1
   10479   10488  -10509   10494       1   10479   10488   10509   10530       1
   10476   10479   10488   10506       1   10476   10479   10488   10509       1
   10476   10482  -10494   10509       1   10476   10482   10497   10518       1
   10476   10485  -10500   10518       1   10476   10485   10500   10521       1
   10665   10644   10662   10671       1   10665   10674  -10680   10671       1
   10662   10644   10665   10674       1   10662   10671  -10680   10674       1
   10644   10662   10671   10680       1   10644   10665  -10674   10680       1
   10641   10662   10644   10665       1   10641   10662   10671   10680       1
   10629   10608   10626   10641       1   10629   10644  -10662   10641       1
   10629   10644   10662   10671       1   10629   10644   10665   10674       1
   10626   10608   10629   10644       1   10626   10641  -10662   10644       1
   10626   10641   10662   10671       1   10617   10596   10614   10632       1
   10617   10638  -10650   10632       1   10614   10596   10617   10638       1
   10614   10632  -10650   10638       1   10608   10626   10641   10662       1
   10608   10629  -10644   10662       1   10608   10629   10644   10665       1
   10605   10590   10602   10617       1   10605   10626   10608   10629       1
   10605   10626   10641   10662       1   10602   10590   10605   10626       1
   10602   10617   10596   10614       1   10602   10617   10638   10650       1
   10596   10614   10632   10650       1   10596   10617  -10638   10650       1
   10593   10584   10587   10596       1   10593   10584   10590   10602       1
   10593   10584   10590   10605       1   10593   10608  -10626   10605       1
   10593   10608   10626   10641       1   10593   10608   10629   10644       1
   10590   10584   10587   10596       1   10590   10584   10593   10608       1
   10590   10602  -10617   10596       1   10590   10602   10617   10638       1
   10590   10605  -10626   10608       1   10590   10605   10626   10641       1
   10587   10584   10590   10602       1   10587   10584   10590   10605       1
   10587   10584   10593   10608       1   10587   10596   10614   10632       1
   10587   10596  -10617   10602       1   10587   10596   10617   10638       1
   10584   10587   10596   10614       1   10584   10587   10596   10617       1
   10584   10590  -10602   10617       1   10584   10590   10605   10626       1
   10584   10593  -10608   10626       1   10584   10593   10608   10629       1
   10773   10752   10770   10779       1   10773   10782  -10788   10779       1
   10770   10752   10773   10782       1   10770   10779  -10788   10782       1
   10752   10770   10779   10788       1   10752   10773  -10782   10788       1
   10749   10770   10752   10773       1   10749   10770   10779   10788       1
   10737   10716   10734   10749       1   10737   10752  -10770   10749       1
   10737   10752   10770   10779       1   10737   10752   10773   10782       1
   10734   10716   10737   10752       1   10734   10749  -10770   10752       1
   10734   10749   10770   10779       1   10725   10704   10722   10740       1
   10725   10746  -10758   10740       1   10722   10704   10725   10746       1
   10722   10740  -10758   10746       1   10716   10734   10749   10770       1
   10716   10737  -10752   10770       1   10716   10737   10752   10773       1
   10713   10698   10710   10725       1   10713   10734   10716   10737       1
   10713   10734   10749   10770       1   10710   10698   10713   10734       1
   10710   10725   10704   10722       1   10710   10725   10746   10758       1
   10704   10722   10740   10758       1   10704   10725  -10746   10758       1
   10701   10692   10695   10704       1   10701   10692   10698   10710       1
   10701   10692   10698   10713       1   10701   10716  -10734   10713       1
   10701   10716   10734   10749       1   10701   10716   10737   10752       1
   10698   10692   10695   10704       1   10698   10692   10701   10716       1
   10698   10710  -10725   10704       1   10698   10710   10725   10746       1
   10698   10713  -10734   10716       1   10698   10713   10734   10749       1
   10695   10692   10698   10710       1   10695   10692   10698   10713       1
   10695   10692   10701   10716       1   10695   10704   10722   10740       1
   10695   10704  -10725   10710       1   10695   10704   10725   10746       1
   10692   10695   10704   10722       1   10692   10695   10704   10725       1
   10692   10698  -10710   10725       1   10692   10698   10713   10734       1
   10692   10701  -10716   10734       1   10692   10701   10716   10737       1
   10881   10860   10878   10887       1   10881   10890  -10896   10887       1
   10878   10860   10881   10890       1   10878   10887  -10896   10890       1
   10860   10878   10887   10896       1   10860   10881  -10890   10896       1
   10857   10878   10860   10881       1   10857   10878   10887   10896       1
   10845   10824   10842   10857       1   10845   10860  -10878   10857       1
   10845   10860   10878   10887       1   10845   10860   10881   10890       1
   10842   10824   10845   10860       1   10842   10857  -10878   10860       1
   10842   10857   10878   10887       1   10833   10812   10830   10848       1
   10833   10854  -10866   10848       1   10830   10812   10833   10854       1
   10830   10848  -10866   10854       1   10824   10842   10857   10878       1
   10824   10845  -10860   10878       1   10824   10845   10860   10881       1
   10821   10806   10818   10833       1   10821   10842   10824   10845       1
   10821   10842   10857   10878       1   10818   10806   10821   10842       1
   10818   10833   10812   10830       1   10818   10833   10854   10866       1
   10812   10830   10848   10866       1   10812   10833  -10854   10866       1
   10809   10800   10803   10812       1   10809   10800   10806   10818       1
   10809   10800   10806   10821       1   10809   10824  -10842   10821       1
   10809   10824   10842   10857       1   10809   10824   10845   10860       1
   10806   10800   10803   10812       1   10806   10800   10809   10824       1
   10806   10818  -10833   10812       1   10806   10818   10833   10854       1
   10806   10821  -10842   10824       1   10806   10821   10842   10857       1
   10803   10800   10806   10818       1   10803   10800   10806   10821       1
   10803   10800   10809   10824       1   10803   10812   10830   10848       1
   10803   10812  -10833   10818       1   10803   10812   10833   10854       1
   10800   10803   10812   10830       1   10800   10803   10812   10833       1
   10800   10806  -10818   10833       1   10800   10806   10821   10842       1
   10800   10809  -10824   10842       1   10800   10809   10824   10845       1
   10989   10968   10986   10995       1   10989   10998  -11004   10995       1
   10986   10968   10989   10998       1   10986   10995  -11004   10998       1
   10968   10986   10995   11004       1   10968   10989  -10998   11004       1
   10965   10986   10968   10989       1   10965   10986   10995   11004       1
   10953   10932   10950   10965       1   10953   10968  -10986   10965       1
   10953   10968   10986   10995       1   10953   10968   10989   10998       1
   10950   10932   10953   10968       1   10950   10965  -10986   10968       1
   10950   10965   10986   10995       1   10941   10920   10938   10956       1
   10941   10962  -10974   10956       1   10938   10920   10941   10962       1
   10938   10956  -10974   10962       1   10932   10950   10965   10986       1
   10932   10953  -10968   10986       1   10932   10953   10968   10989       1
   10929   10914   10926   10941       1   10929   10950   10932   10953       1
   10929   10950   10965   10986       1   10926   10914   10929   10950       1
   10926   10941   10920   10938       1   10926   10941   10962   10974       1
   10920   10938   10956   10974       1   10920   10941  -10962   10974       1
   10917   10908   10911   10920       1   10917   10908   10914   10926       1
   10917   10908   10914   10929       1   10917   10932  -10950   10929       1
   10917   10932   10950   10965       1   10917   10932   10953   10968       1
   10914   10908   10911   10920       1   10914   10908   10917   10932       1
   10914   10926  -10941   10920       1   10914   10926   10941   10962       1
   10914   10929  -10950   10932       1   10914   10929   10950   10965       1
   10911   10908   10914   10926       1   10911   10908   10914   10929       1
   10911   10908   10917   10932       1   10911   10920   10938   10956       1
   10911   10920  -10941   10926       1   10911   10920   10941   10962       1
   10908   10911   10920   10938       1   10908   10911   10920   10941       1
   10908   10914  -10926   10941       1   10908   10914   10929   10950       1
   10908   10917  -10932   10950       1   10908   10917   10932   10953       1
   11097   11076   11094   11103       1   11097   11106  -11112   11103       1
   11094   11076   11097   11106       1   11094   11103  -11112   11106       1
   11076   11094   11103   11112       1   11076   11097  -11106   11112       1
   11073   11094   11076   11097       1   11073   11094   11103   11112       1
   11061   11040   11058   11073       1   11061   11076  -11094   11073       1
   11061   11076   11094   11103       1   11061   11076   11097   11106       1
   11058   11040   11061   11076       1   11058   11073  -11094   11076       1
   11058   11073   11094   11103       1   11049   11028   11046   11064       1
   11049   11070  -11082   11064       1   11046   11028   11049   11070       1
   11046   11064  -11082   11070       1   11040   11058   11073   11094       1
   11040   11061  -11076   11094       1   11040   11061   11076   11097       1
   11037   11022   11034   11049       1   11037   11058   11040   11061       1
   11037   11058   11073   11094       1   11034   11022   11037   11058       1
   11034   11049   11028   11046       1   11034   11049   11070   11082       1
   11028   11046   11064   11082       1   11028   11049  -11070   11082       1
   11025   11016   11019   11028       1   11025   11016   11022   11034       1
   11025   11016   11022   11037       1   11025   11040  -11058   11037       1
   11025   11040   11058   11073       1   11025   11040   11061   11076       1
   11022   11016   11019   11028       1   11022   11016   11025   11040       1
   11022   11034  -11049   11028       1   11022   11034   11049   11070       1
   11022   11037  -11058   11040       1   11022   11037   11058   11073       1
   11019   11016   11022   11034       1   11019   11016   11022   11037       1
   11019   11016   11025   11040       1   11019   11028   11046   11064       1
   11019   11028  -11049   11034       1   11019   11028   11049   11070       1
   11016   11019   11028   11046       1   11016   11019   11028   11049       1
   11016   11022  -11034   11049       1   11016   11022   11037   11058       1
   11016   11025  -11040   11058       1   11016   11025   11040   11061       1
   11205   11184   11202   11211       1   11205   11214  -11220   11211       1
   11202   11184   11205   11214       1   11202   11211  -11220   11214       1
   11184   11202   11211   11220       1   11184   11205  -11214   11220       1
   11181   11202   11184   11205       1   11181   11202   11211   11220       1
   11169   11148   11166   11181       1   11169   11184  -11202   11181       1
   11169   11184   11202   11211       1   11169   11184   11205   11214       1
   11166   11148   11169   11184       1   11166   11181  -11202   11184       1
   11166   11181   11202   11211       1   11157   11136   11154   11172       1
   11157   11178  -11190   11172       1   11154   11136   11157   11178       1
   11154   11172  -11190   11178       1   11148   11166   11181   11202       1
   11148   11169  -11184   11202       1   11148   11169   11184   11205       1
   11145   11130   11142   11157       1   11145   11166   11148   11169       1
   11145   11166   11181   11202       1   11142   11130   11145   11166       1
   11142   11157   11136   11154       1   11142   11157   11178   11190       1
   11136   11154   11172   11190       1   11136   11157  -11178   11190       1
   11133   11124   11127   11136       1   11133   11124   11130   11142       1
   11133   11124   11130   11145       1   11133   11148  -11166   11145       1
   11133   11148   11166   11181       1   11133   11148   11169   11184       1
   11130   11124   11127   11136       1   11130   11124   11133   11148       1
   11130   11142  -11157   11136       1   11130   11142   11157   11178       1
   11130   11145  -11166   11148       1   11130   11145   11166   11181       1
   11127   11124   11130   11142       1   11127   11124   11130   11145       1
   11127   11124   11133   11148       1   11127   11136   11154   11172       1
   11127   11136  -11157   11142       1   11127   11136   11157   11178       1
   11124   11127   11136   11154       1   11124   11127   11136   11157       1
   11124   11130  -11142   11157       1   11124   11130   11145   11166       1
   11124   11133  -11148   11166       1   11124   11133   11148   11169       1
   11313   11292   11310   11319       1   11313   11322  -11328   11319       1
   11310   11292   11313   11322       1   11310   11319  -11328   11322       1
   11292   11310   11319   11328       1   11292   11313  -11322   11328       1
   11289   11310   11292   11313       1   11289   11310   11319   11328       1
   11277   11256   11274   11289       1   11277   11292  -11310   11289       1
   11277   11292   11310   11319       1   11277   11292   11313   11322       1
   11274   11256   11277   11292       1   11274   11289  -11310   11292       1
   11274   11289   11310   11319       1   11265   11244   11262   11280       1
   11265   11286  -11298   11280       1   11262   11244   11265   11286       1
   11262   11280  -11298   11286       1   11256   11274   11289   11310       1
   11256   11277  -11292   11310       1   11256   11277   11292   11313       1
   11253   11238   11250   11265       1   11253   11274   11256   11277       1
   11253   11274   11289   11310       1   11250   11238   11253   11274       1
   11250   11265   11244   11262       1   11250   11265   11286   11298       1
   11244   11262   11280   11298       1   11244   11265  -11286   11298       1
   11241   11232   11235   11244       1   11241   11232   11238   11250       1
   11241   11232   11238   11253       1   11241   11256  -11274   11253       1
   11241   11256   11274   11289       1   11241   11256   11277   11292       1
   11238   11232   11235   11244       1   11238   11232   11241   11256       1
   11238   11250  -11265   11244       1   11238   11250   11265   11286       1
   11238   11253  -11274   11256       1   11238   11253   11274   11289       1
   11235   11232   11238   11250       1   11235   11232   11238   11253       1
   11235   11232   11241   11256       1   11235   11244   11262   11280       1
   11235   11244  -11265   11250       1   11235   11244   11265   11286       1
   11232   11235   11244   11262       1   11232   11235   11244   11265       1
   11232   11238  -11250   11265       1   11232   11238   11253   11274       1
   11232   11241  -11256   11274       1   11232   11241   11256   11277       1
   11421   11400   11418   11427       1   11421   11430  -11436   11427       1
   11418   11400   11421   11430       1   11418   11427  -11436   11430       1
   11400   11418   11427   11436       1   11400   11421  -11430   11436       1
   11397   11418   11400   11421       1   11397   11418   11427   11436       1
   11385   11364   11382   11397       1   11385   11400  -11418   11397       1
   11385   11400   11418   11427       1   11385   11400   11421   11430       1
   11382   11364   11385   11400       1   11382   11397  -11418   11400       1
   11382   11397   11418   11427       1   11373   11352   11370   11388       1
   11373   11394  -11406   11388       1   11370   11352   11373   11394       1
   11370   11388  -11406   11394       1   11364   11382   11397   11418       1
   11364   11385  -11400   11418       1   11364   11385   11400   11421       1
   11361   11346   11358   11373       1   11361   11382   11364   11385       1
   11361   11382   11397   11418       1   11358   11346   11361   11382       1
   11358   11373   11352   11370       1   11358   11373   11394   11406       1
   11352   11370   11388   11406       1   11352   11373  -11394   11406       1
   11349   11340   11343   11352       1   11349   11340   11346   11358       1
   11349   11340   11346   11361       1   11349   11364  -11382   11361       1
   11349   11364   11382   11397       1   11349   11364   11385   11400       1
   11346   11340   11343   11352       1   11346   11340   11349   11364       1
   11346   11358  -11373   11352       1   11346   11358   11373   11394       1
   11346   11361  -11382   11364       1   11346   11361   11382   11397       1
   11343   11340   11346   11358       1   11343   11340   11346   11361       1
   11343   11340   11349   11364       1   11343   11352   11370   11388       1
   11343   11352  -11373   11358       1   11343   11352   11373   11394       1
   11340   11343   11352   11370       1   11340   11343   11352   11373       1
   11340   11346  -11358   11373       1   11340   11346   11361   11382       1
   11340   11349  -11364   11382       1   11340   11349   11364   11385       1
   11529   11508   11526   11535       1   11529   11538  -11544   11535       1
   11526   11508   11529   11538       1   11526   11535  -11544   11538       1
   11508   11526   11535   11544       1   11508   11529  -11538   11544       1
   11505   11526   11508   11529       1   11505   11526   11535   11544       1
   11493   11472   11490   11505       1   11493   11508  -11526   11505       1
   11493   11508   11526   11535       1   11493   11508   11529   11538       1
   11490   11472   11493   11508       1   11490   11505  -11526   11508       1
   11490   11505   11526   11535       1   11481   11460   11478   11496       1
   11481   11502  -11514   11496       1   11478   11460   11481   11502       1
   11478   11496  -11514   11502       1   11472   11490   11505   11526       1
   11472   11493  -11508   11526       1   11472   11493   11508   11529       1
   11469   11454   11466   11481       1   11469   11490   11472   11493       1
   11469   11490   11505   11526       1   11466   11454   11469   11490       1
   11466   11481   11460   11478       1   11466   11481   11502   11514       1
   11460   11478   11496   11514       1   11460   11481  -11502   11514       1
   11457   11448   11451   11460       1   11457   11448   11454   11466       1
   11457   11448   11454   11469       1   11457   11472  -11490   11469       1
   11457   11472   11490   11505       1   11457   11472   11493   11508       1
   11454   11448   11451   11460       1   11454   11448   11457   11472       1
   11454   11466  -11481   11460       1   11454   11466   11481   11502       1
   11454   11469  -11490   11472       1   11454   11469   11490   11505       1
   11451   11448   11454   11466       1   11451   11448   11454   11469       1
   11451   11448   11457   11472       1   11451   11460   11478   11496       1
   11451   11460  -11481   11466       1   11451   11460   11481   11502       1
   11448   11451   11460   11478       1   11448   11451   11460   11481       1
   11448   11454  -11466   11481       1   11448   11454   11469   11490       1
   11448   11457  -11472   11490       1   11448   11457   11472   11493       1
   11637   11616   11634   11643       1   11637   11646  -11652   11643       1
   11634   11616   11637   11646       1   11634   11643  -11652   11646       1
   11616   11634   11643   11652       1   11616   11637  -11646   11652       1
   11613   11634   11616   11637       1   11613   11634   11643   11652       1
   11601   11580   11598   11613       1   11601   11616  -11634   11613       1
   11601   11616   11634   11643       1   11601   11616   11637   11646       1
   11598   11580   11601   11616       1   11598   11613  -11634   11616       1
   11598   11613   11634   11643       1   11589   11568   11586   11604       1
   11589   11610  -11622   11604       1   11586   11568   11589   11610       1
   11586   11604  -11622   11610       1   11580   11598   11613   11634       1
   11580   11601  -11616   11634       1   11580   11601   11616   11637       1
   11577   11562   11574   11589       1   11577   11598   11580   11601       1
   11577   11598   11613   11634       1   11574   11562   11577   11598       1
   11574   11589   11568   11586       1   11574   11589   11610   11622       1
   11568   11586   11604   11622       1   11568   11589  -11610   11622       1
   11565   11556   11559   11568       1   11565   11556   11562   11574       1
   11565   11556   11562   11577       1   11565   11580  -11598   11577       1
   11565   11580   11598   11613       1   11565   11580   11601   11616       1
   11562   11556   11559   11568       1   11562   11556   11565   11580       1
   11562   11574  -11589   11568       1   11562   11574   11589   11610       1
   11562   11577  -11598   11580       1   11562   11577   11598   11613       1
   11559   11556   11562   11574       1   11559   11556   11562   11577       1
   11559   11556   11565   11580       1   11559   11568   11586   11604       1
   11559   11568  -11589   11574       1   11559   11568   11589   11610       1
   11556   11559   11568   11586       1   11556   11559   11568   11589       1
   11556   11562  -11574   11589       1   11556   11562   11577   11598       1
   11556   11565  -11580   11598       1   11556   11565   11580   11601       1
   11745   11724   11742   11751       1   11745   11754  -11760   11751       1
   11742   11724   11745   11754       1   11742   11751  -11760   11754       1
   11724   11742   11751   11760       1   11724   11745  -11754   11760       1
   11721   11742   11724   11745       1   11721   11742   11751   11760       1
   11709   11688   11706   11721       1   11709   11724  -11742   11721       1
   11709   11724   11742   11751       1   11709   11724   11745   11754       1
   11706   11688   11709   11724       1   11706   11721  -11742   11724       1
   11706   11721   11742   11751       1   11697   11676   11694   11712       1
   11697   11718  -11730   11712       1   11694   11676   11697   11718       1
   11694   11712  -11730   11718       1   11688   11706   11721   11742       1
   11688   11709  -11724   11742       1   11688   11709   11724   11745       1
   11685   11670   11682   11697       1   11685   11706   11688   11709       1
   11685   11706   11721   11742       1   11682   11670   11685   11706       1
   11682   11697   11676   11694       1   11682   11697   11718   11730       1
   11676   11694   11712   11730       1   11676   11697  -11718   11730       1
   11673   11664   11667   11676       1   11673   11664   11670   11682       1
   11673   11664   11670   11685       1   11673   11688  -11706   11685       1
   11673   11688   11706   11721       1   11673   11688   11709   11724       1
   11670   11664   11667   11676       1   11670   11664   11673   11688       1
   11670   11682  -11697   11676       1   11670   11682   11697   11718       1
   11670   11685  -11706   11688       1   11670   11685   11706   11721       1
   11667   11664   11670   11682       1   11667   11664   11670   11685       1
   11667   11664   11673   11688       1   11667   11676   11694   11712       1
   11667   11676  -11697   11682       1   11667   11676   11697   11718       1
   11664   11667   11676   11694       1   11664   11667   11676   11697       1
   11664   11670  -11682   11697       1   11664   11670   11685   11706       1
   11664   11673  -11688   11706       1   11664   11673   11688   11709       1
   11853   11832   11850   11859       1   11853   11862  -11868   11859       1
   11850   11832   11853   11862       1   11850   11859  -11868   11862       1
   11832   11850   11859   11868       1   11832   11853  -11862   11868       1
   11829   11850   11832   11853       1   11829   11850   11859   11868       1
   11817   11796   11814   11829       1   11817   11832  -11850   11829       1
   11817   11832   11850   11859       1   11817   11832   11853   11862       1
   11814   11796   11817   11832       1   11814   11829  -11850   11832       1
   11814   11829   11850   11859       1   11805   11784   11802   11820       1
   11805   11826  -11838   11820       1   11802   11784   11805   11826       1
   11802   11820  -11838   11826       1   11796   11814   11829   11850       1
   11796   11817  -11832   11850       1   11796   11817   11832   11853       1
   11793   11778   11790   11805       1   11793   11814   11796   11817       1
   11793   11814   11829   11850       1   11790   11778   11793   11814       1
   11790   11805   11784   11802       1   11790   11805   11826   11838       1
   11784   11802   11820   11838       1   11784   11805  -11826   11838       1
   11781   11772   11775   11784       1   11781   11772   11778   11790       1
   11781   11772   11778   11793       1   11781   11796  -11814   11793       1
   11781   11796   11814   11829       1   11781   11796   11817   11832       1
   11778   11772   11775   11784       1   11778   11772   11781   11796       1
   11778   11790  -11805   11784       1   11778   11790   11805   11826       1
   11778   11793  -11814   11796       1   11778   11793   11814   11829       1
   11775   11772   11778   11790       1   11775   11772   11778   11793       1
   11775   11772   11781   11796       1   11775   11784   11802   11820       1
   11775   11784  -11805   11790       1   11775   11784   11805   11826       1
   11772   11775   11784   11802       1   11772   11775   11784   11805       1
   11772   11778  -11790   11805       1   11772   11778   11793   11814       1
   11772   11781  -11796   11814       1   11772   11781   11796   11817       1
   11961   11940   11958   11967       1   11961   11970  -11976   11967       1
   11958   11940   11961   11970       1   11958   11967  -11976   11970       1
   11940   11958   11967   11976       1   11940   11961  -11970   11976       1
   11937   11958   11940   11961       1   11937   11958   11967   11976       1
   11925   11904   11922   11937       1   11925   11940  -11958   11937       1
   11925   11940   11958   11967       1   11925   11940   11961   11970       1
   11922   11904   11925   11940       1   11922   11937  -11958   11940       1
   11922   11937   11958   11967       1   11913   11892   11910   11928       1
   11913   11934  -11946   11928       1   11910   11892   11913   11934       1
   11910   11928  -11946   11934       1   11904   11922   11937   11958       1
   11904   11925  -11940   11958       1   11904   11925   11940   11961       1
   11901   11886   11898   11913       1   11901   11922   11904   11925       1
   11901   11922   11937   11958       1   11898   11886   11901   11922       1
   11898   11913   11892   11910       1   11898   11913   11934   11946       1
   11892   11910   11928   11946       1   11892   11913  -11934   11946       1
   11889   11880   11883   11892       1   11889   11880   11886   11898       1
   11889   11880   11886   11901       1   11889   11904  -11922   11901       1
   11889   11904   11922   11937       1   11889   11904   11925   11940       1
   11886   11880   11883   11892       1   11886   11880   11889   11904       1
   11886   11898  -11913   11892       1   11886   11898   11913   11934       1
   11886   11901  -11922   11904       1   11886   11901   11922   11937       1
   11883   11880   11886   11898       1   11883   11880   11886   11901       1
   11883   11880   11889   11904       1   11883   11892   11910   11928       1
   11883   11892  -11913   11898       1   11883   11892   11913   11934       1
   11880   11883   11892   11910       1   11880   11883   11892   11913       1
   11880   11886  -11898   11913       1   11880   11886   11901   11922       1
   11880   11889  -11904   11922       1   11880   11889   11904   11925       1
   12069   12048   12066   12075       1   12069   12078  -12084   12075       1
   12066   12048   12069   12078       1   12066   12075  -12084   12078       1
   12048   12066   12075   12084       1   12048   12069  -12078   12084       1
   12045   12066   12048   12069       1   12045   12066   12075   12084       1
   12033   12012   12030   12045       1   12033   12048  -12066   12045       1
   12033   12048   12066   12075       1   12033   12048   12069   12078       1
   12030   12012   12033   12048       1   12030   12045  -12066   12048       1
   12030   12045   12066   12075       1   12021   12000   12018   12036       1
   12021   12042  -12054   12036       1   12018   12000   12021   12042       1
   12018   12036  -12054   12042       1   12012   12030   12045   12066       1
   12012   12033  -12048   12066       1   12012   12033   12048   12069       1
   12009   11994   12006   12021       1   12009   12030   12012   12033       1
   12009   12030   12045   12066       1   12006   11994   12009   12030       1
   12006   12021   12000   12018       1   12006   12021   12042   12054       1
   12000   12018   12036   12054       1   12000   12021  -12042   12054       1
   11997   11988   11991   12000       1   11997   11988   11994   12006       1
   11997   11988   11994   12009       1   11997   12012  -12030   12009       1
   11997   12012   12030   12045       1   11997   12012   12033   12048       1
   11994   11988   11991   12000       1   11994   11988   11997   12012       1
   11994   12006  -12021   12000       1   11994   12006   12021   12042       1
   11994   12009  -12030   12012       1   11994   12009   12030   12045       1
   11991   11988   11994   12006       1   11991   11988   11994   12009       1
   11991   11988   11997   12012       1   11991   12000   12018   12036       1
   11991   12000  -12021   12006       1   11991   12000   12021   12042       1
   11988   11991   12000   12018       1   11988   11991   12000   12021       1
   11988   11994  -12006   12021       1   11988   11994   12009   12030       1
   11988   11997  -12012   12030       1   11988   11997   12012   12033       1
   12177   12156   12174   12183       1   12177   12186  -12192   12183       1
   12174   12156   12177   12186       1   12174   12183  -12192   12186       1
   12156   12174   12183   12192       1   12156   12177  -12186   12192       1
   12153   12174   12156   12177       1   12153   12174   12183   12192       1
   12141   12120   12138   12153       1   12141   12156  -12174   12153       1
   12141   12156   12174   12183       1   12141   12156   12177   12186       1
   12138   12120   12141   12156       1   12138   12153  -12174   12156       1
   12138   12153   12174   12183       1   12129   12108   12126   12144       1
   12129   12150  -12162   12144       1   12126   12108   12129   12150       1
   12126   12144  -12162   12150       1   12120   12138   12153   12174       1
   12120   12141  -12156   12174       1   12120   12141   12156   12177       1
   12117   12102   12114   12129       1   12117   12138   12120   12141       1
   12117   12138   12153   12174       1   12114   12102   12117   12138       1
   12114   12129   12108   12126       1   12114   12129   12150   12162       1
   12108   12126   12144   12162       1   12108   12129  -12150   12162       1
   12105   12096   12099   12108       1   12105   12096   12102   12114       1
   12105   12096   12102   12117       1   12105   12120  -12138   12117       1
   12105   12120   12138   12153       1   12105   12120   12141   12156       1
   12102   12096   12099   12108       1   12102   12096   12105   12120       1
   12102   12114  -12129   12108       1   12102   12114   12129   12150       1
   12102   12117  -12138   12120       1   12102   12117   12138   12153       1
   12099   12096   12102   12114       1   12099   12096   12102   12117       1
   12099   12096   12105   12120       1   12099   12108   12126   12144       1
   12099   12108  -12129   12114       1   12099   12108   12129   12150       1
   12096   12099   12108   12126       1   12096   12099   12108   12129       1
   12096   12102  -12114   12129       1   12096   12102   12117   12138       1
   12096   12105  -12120   12138       1   12096   12105   12120   12141       1
   12285   12264   12282   12291       1   12285   12294  -12300   12291       1
   12282   12264   12285   12294       1   12282   12291  -12300   12294       1
   12264   12282   12291   12300       1   12264   12285  -12294   12300       1
   12261   12282   12264   12285       1   12261   12282   12291   12300       1
   12249   12228   12246   12261       1   12249   12264  -12282   12261       1
   12249   12264   12282   12291       1   12249   12264   12285   12294       1
   12246   12228   12249   12264       1   12246   12261  -12282   12264       1
   12246   12261   12282   12291       1   12237   12216   12234   12252       1
   12237   12258  -12270   12252       1   12234   12216   12237   12258       1
   12234   12252  -12270   12258       1   12228   12246   12261   12282       1
   12228   12249  -12264   12282       1   12228   12249   12264   12285       1
   12225   12210   12222   12237       1   12225   12246   12228   12249       1
   12225   12246   12261   12282       1   12222   12210   12225   12246       1
   12222   12237   12216   12234       1   12222   12237   12258   12270       1
   12216   12234   12252   12270       1   12216   12237  -12258   12270       1
   12213   12204   12207   12216       1   12213   12204   12210   12222       1
   12213   12204   12210   12225       1   12213   12228  -12246   12225       1
   12213   12228   12246   12261       1   12213   12228   12249   12264       1
   12210   12204   12207   12216       1   12210   12204   12213   12228       1
   12210   12222  -12237   12216       1   12210   12222   12237   12258       1
   12210   12225  -12246   12228       1   12210   12225   12246   12261       1
   12207   12204   12210   12222       1   12207   12204   12210   12225       1
   12207   12204   12213   12228       1   12207   12216   12234   12252       1
   12207   12216  -12237   12222       1   12207   12216   12237   12258       1
   12204   12207   12216   12234       1   12204   12207   12216   12237       1
   12204   12210  -12222   12237       1   12204   12210   12225   12246       1
   12204   12213  -12228   12246       1   12204   12213   12228   12249       1
   12393   12372   12390   12399       1   12393   12402  -12408   12399       1
   12390   12372   12393   12402       1   12390   12399  -12408   12402       1
   12372   12390   12399   12408       1   12372   12393  -12402   12408       1
   12369   12390   12372   12393       1   12369   12390   12399   12408       1
   12357   12336   12354   12369       1   12357   12372  -12390   12369       1
   12357   12372   12390   12399       1   12357   12372   12393   12402       1
   12354   12336   12357   12372       1   12354   12369  -12390   12372       1
   12354   12369   12390   12399       1   12345   12324   12342   12360       1
   12345   12366  -12378   12360       1   12342   12324   12345   12366       1
   12342   12360  -12378   12366       1   12336   12354   12369   12390       1
   12336   12357  -12372   12390       1   12336   12357   12372   12393       1
   12333   12318   12330   12345       1   12333   12354   12336   12357       1
   12333   12354   12369   12390       1   12330   12318   12333   12354       1
   12330   12345   12324   12342       1   12330   12345   12366   12378       1
   12324   12342   12360   12378       1   12324   12345  -12366   12378       1
   12321   12312   12315   12324       1   12321   12312   12318   12330       1
   12321   12312   12318   12333       1   12321   12336  -12354   12333       1
   12321   12336   12354   12369       1   12321   12336   12357   12372       1
   12318   12312   12315   12324       1   12318   12312   12321   12336       1
   12318   12330  -12345   12324       1   12318   12330   12345   12366       1
   12318   12333  -12354   12336       1   12318   12333   12354   12369       1
   12315   12312   12318   12330       1   12315   12312   12318   12333       1
   12315   12312   12321   12336       1   12315   12324   12342   12360       1
   12315   12324  -12345   12330       1   12315   12324   12345   12366       1
   12312   12315   12324   12342       1   12312   12315   12324   12345       1
   12312   12318  -12330   12345       1   12312   12318   12333   12354       1
   12312   12321  -12336   12354       1   12312   12321   12336   12357       1
   12501   12480   12498   12507       1   12501   12510  -12516   12507       1
   12498   12480   12501   12510       1   12498   12507  -12516   12510       1
   12480   12498   12507   12516       1   12480   12501  -12510   12516       1
   12477   12498   12480   12501       1   12477   12498   12507   12516       1
   12465   12444   12462   12477       1   12465   12480  -12498   12477       1
   12465   12480   12498   12507       1   12465   12480   12501   12510       1
   12462   12444   12465   12480       1   12462   12477  -12498   12480       1
   12462   12477   12498   12507       1   12453   12432   12450   12468       1
   12453   12474  -12486   12468       1   12450   12432   12453   12474       1
   12450   12468  -12486   12474       1   12444   12462   12477   12498       1
   12444   12465  -12480   12498       1   12444   12465   12480   12501       1
   12441   12426   12438   12453       1   12441   12462   12444   12465       1
   12441   12462   12477   12498       1   12438   12426   12441   12462       1
   12438   12453   12432   12450       1   12438   12453   12474   12486       1
   12432   12450   12468   12486       1   12432   12453  -12474   12486       1
   12429   12420   12423   12432       1   12429   12420   12426   12438       1
   12429   12420   12426   12441       1   12429   12444  -12462   12441       1
   12429   12444   12462   12477       1   12429   12444   12465   12480       1
   12426   12420   12423   12432       1   12426   12420   12429   12444       1
   12426   12438  -12453   12432       1   12426   12438   12453   12474       1
   12426   12441  -12462   12444       1   12426   12441   12462   12477       1
   12423   12420   12426   12438       1   12423   12420   12426   12441       1
   12423   12420   12429   12444       1   12423   12432   12450   12468       1
   12423   12432  -12453   12438       1   12423   12432   12453   12474       1
   12420   12423   12432   12450       1   12420   12423   12432   12453       1
   12420   12426  -12438   12453       1   12420   12426   12441   12462       1
   12420   12429  -12444   12462       1   12420   12429   12444   12465       1
   12609   12588   12606   12615       1   12609   12618  -12624   12615       1
   12606   12588   12609   12618       1   12606   12615  -12624   12618       1
   12588   12606   12615   12624       1   12588   12609  -12618   12624       1
   12585   12606   12588   12609       1   12585   12606   12615   12624       1
   12573   12552   12570   12585       1   12573   12588  -12606   12585       1
   12573   12588   12606   12615       1   12573   12588   12609   12618       1
   12570   12552   12573   12588       1   12570   12585  -12606   12588       1
   12570   12585   12606   12615       1   12561   12540   12558   12576       1
   12561   12582  -12594   12576       1   12558   12540   12561   12582       1
   12558   12576  -12594   12582       1   12552   12570   12585   12606       1
   12552   12573  -12588   12606       1   12552   12573   12588   12609       1
   12549   12534   12546   12561       1   12549   12570   12552   12573       1
   12549   12570   12585   12606       1   12546   12534   12549   12570       1
   12546   12561   12540   12558       1   12546   12561   12582   12594       1
   12540   12558   12576   12594       1   12540   12561  -12582   12594       1
   12537   12528   12531   12540       1   12537   12528   12534   12546       1
   12537   12528   12534   12549       1   12537   12552  -12570   12549       1
   12537   12552   12570   12585       1   12537   12552   12573   12588       1
   12534   12528   12531   12540       1   12534   12528   12537   12552       1
   12534   12546  -12561   12540       1   12534   12546   12561   12582       1
   12534   12549  -12570   12552       1   12534   12549   12570   12585       1
   12531   12528   12534   12546       1   12531   12528   12534   12549       1
   12531   12528   12537   12552       1   12531   12540   12558   12576       1
   12531   12540  -12561   12546       1   12531   12540   12561   12582       1
   12528   12531   12540   12558       1   12528   12531   12540   12561       1
   12528   12534  -12546   12561       1   12528   12534   12549   12570       1
   12528   12537  -12552   12570       1   12528   12537   12552   12573       1
   12717   12696   12714   12723       1   12717   12726  -12732   12723       1
   12714   12696   12717   12726       1   12714   12723  -12732   12726       1
   12696   12714   12723   12732       1   12696   12717  -12726   12732       1
   12693   12714   12696   12717       1   12693   12714   12723   12732       1
   12681   12660   12678   12693       1   12681   12696  -12714   12693       1
   12681   12696   12714   12723       1   12681   12696   12717   12726       1
   12678   12660   12681   12696       1   12678   12693  -12714   12696       1
   12678   12693   12714   12723       1   12669   12648   12666   12684       1
   12669   12690  -12702   12684       1   12666   12648   12669   12690       1
   12666   12684  -12702   12690       1   12660   12678   12693   12714       1
   12660   12681  -12696   12714       1   12660   12681   12696   12717       1
   12657   12642   12654   12669       1   12657   12678   12660   12681       1
   12657   12678   12693   12714       1   12654   12642   12657   12678       1
   12654   12669   12648   12666       1   12654   12669   12690   12702       1
   12648   12666   12684   12702       1   12648   12669  -12690   12702       1
   12645   12636   12639   12648       1   12645   12636   12642   12654       1
   12645   12636   12642   12657       1   12645   12660  -12678   12657       1
   12645   12660   12678   12693       1   12645   12660   12681   12696       1
   12642   12636   12639   12648       1   12642   12636   12645   12660       1
   12642   12654  -12669   12648       1   12642   12654   12669   12690       1
   12642   12657  -12678   12660       1   12642   12657   12678   12693       1
   12639   12636   12642   12654       1   12639   12636   12642   12657       1
   12639   12636   12645   12660       1   12639   12648   12666   12684       1
   12639   12648  -12669   12654       1   12639   12648   12669   12690       1
   12636   12639   12648   12666       1   12636   12639   12648   12669       1
   12636   12642  -12654   12669       1   12636   12642   12657   12678       1
   12636   12645  -12660   12678       1   12636   12645   12660   12681       1
   12825   12804   12822   12831       1   12825   12834  -12840   12831       1
   12822   12804   12825   12834       1   12822   12831  -12840   12834       1
   12804   12822   12831   12840       1   12804   12825  -12834   12840       1
   12801   12822   12804   12825       1   12801   12822   12831   12840       1
   12789   12768   12786   12801       1   12789   12804  -12822   12801       1
   12789   12804   12822   12831       1   12789   12804   12825   12834       1
   12786   12768   12789   12804       1   12786   12801  -12822   12804       1
   12786   12801   12822   12831       1   12777   12756   12774   12792       1
   12777   12798  -12810   12792       1   12774   12756   12777   12798       1
   12774   12792  -12810   12798       1   12768   12786   12801   12822       1
   12768   12789  -12804   12822       1   12768   12789   12804   12825       1
   12765   12750   12762   12777       1   12765   12786   12768   12789       1
   12765   12786   12801   12822       1   12762   12750   12765   12786       1
   12762   12777   12756   12774       1   12762   12777   12798   12810       1
   12756   12774   12792   12810       1   12756   12777  -12798   12810       1
   12753   12744   12747   12756       1   12753   12744   12750   12762       1
   12753   12744   12750   12765       1   12753   12768  -12786   12765       1
   12753   12768   12786   12801       1   12753   12768   12789   12804       1
   12750   12744   12747   12756       1   12750   12744   12753   12768       1
   12750   12762  -12777   12756       1   12750   12762   12777   12798       1
   12750   12765  -12786   12768       1   12750   12765   12786   12801       1
   12747   12744   12750   12762       1   12747   12744   12750   12765       1
   12747   12744   12753   12768       1   12747   12756   12774   12792       1
   12747   12756  -12777   12762       1   12747   12756   12777   12798       1
   12744   12747   12756   12774       1   12744   12747   12756   12777       1
   12744   12750  -12762   12777       1   12744   12750   12765   12786       1
   12744   12753  -12768   12786       1   12744   12753   12768   12789       1
   12933   12912   12930   12939       1   12933   12942  -12948   12939       1
   12930   12912   12933   12942       1   12930   12939  -12948   12942       1
   12912   12930   12939   12948       1   12912   12933  -12942   12948       1
   12909   12930   12912   12933       1   12909   12930   12939   12948       1
   12897   12876   12894   12909       1   12897   12912  -12930   12909       1
   12897   12912   12930   12939       1   12897   12912   12933   12942       1
   12894   12876   12897   12912       1   12894   12909  -12930   12912       1
   12894   12909   12930   12939       1   12885   12864   12882   12900       1
   12885   12906  -12918   12900       1   12882   12864   12885   12906       1
   12882   12900  -12918   12906       1   12876   12894   12909   12930       1
   12876   12897  -12912   12930       1   12876   12897   12912   12933       1
   12873   12858   12870   12885       1   12873   12894   12876   12897       1
   12873   12894   12909   12930       1   12870   12858   12873   12894       1
   12870   12885   12864   12882       1   12870   12885   12906   12918       1
   12864   12882   12900   12918       1   12864   12885  -12906   12918       1
   12861   12852   12855   12864       1   12861   12852   12858   12870       1
   12861   12852   12858   12873       1   12861   12876  -12894   12873       1
   12861   12876   12894   12909       1   12861   12876   12897   12912       1
   12858   12852   12855   12864       1   12858   12852   12861   12876       1
   12858   12870  -12885   12864       1   12858   12870   12885   12906       1
   12858   12873  -12894   12876       1   12858   12873   12894   12909       1
   12855   12852   12858   12870       1   12855   12852   12858   12873       1
   12855   12852   12861   12876       1   12855   12864   12882   12900       1
   12855   12864  -12885   12870       1   12855   12864   12885   12906       1
   12852   12855   12864   12882       1   12852   12855   12864   12885       1
   12852   12858  -12870   12885       1   12852   12858   12873   12894       1
   12852   12861  -12876   12894       1   12852   12861   12876   12897       1
   13041   13020   13038   13047       1   13041   13050  -13056   13047       1
   13038   13020   13041   13050       1   13038   13047  -13056   13050       1
   13020   13038   13047   13056       1   13020   13041  -13050   13056       1
   13017   13038   13020   13041       1   13017   13038   13047   13056       1
   13005   12984   13002   13017       1   13005   13020  -13038   13017       1
   13005   13020   13038   13047       1   13005   13020   13041   13050       1
   13002   12984   13005   13020       1   13002   13017  -13038   13020       1
   13002   13017   13038   13047       1   12993   12972   12990   13008       1
   12993   13014  -13026   13008       1   12990   12972   12993   13014       1
   12990   13008  -13026   13014       1   12984   13002   13017   13038       1
   12984   13005  -13020   13038       1   12984   13005   13020   13041       1
   12981   12966   12978   12993       1   12981   13002   12984   13005       1
   12981   13002   13017   13038       1   12978   12966   12981   13002       1
   12978   12993   12972   12990       1   12978   12993   13014   13026       1
   12972   12990   13008   13026       1   12972   12993  -13014   13026       1
   12969   12960   12963   12972       1   12969   12960   12966   12978       1
   12969   12960   12966   12981       1   12969   12984  -13002   12981       1
   12969   12984   13002   13017       1   12969   12984   13005   13020       1
   12966   12960   12963   12972       1   12966   12960   12969   12984       1
   12966   12978  -12993   12972       1   12966   12978   12993   13014       1
   12966   12981  -13002   12984       1   12966   12981   13002   13017       1
   12963   12960   12966   12978       1   12963   12960   12966   12981       1
   12963   12960   12969   12984       1   12963   12972   12990   13008       1
   12963   12972  -12993   12978       1   12963   12972   12993   13014       1
   12960   12963   12972   12990       1   12960   12963   12972   12993       1
   12960   12966  -12978   12993       1   12960   12966   12981   13002       1
   12960   12969  -12984   13002       1   12960   12969   12984   13005       1
   13149   13128   13146   13155       1   13149   13158  -13164   13155       1
   13146   13128   13149   13158       1   13146   13155  -13164   13158       1
   13128   13146   13155   13164       1   13128   13149  -13158   13164       1
   13125   13146   13128   13149       1   13125   13146   13155   13164       1
   13113   13092   13110   13125       1   13113   13128  -13146   13125       1
   13113   13128   13146   13155       1   13113   13128   13149   13158       1
   13110   13092   13113   13128       1   13110   13125  -13146   13128       1
   13110   13125   13146   13155       1   13101   13080   13098   13116       1
   13101   13122  -13134   13116       1   13098   13080   13101   13122       1
   13098   13116  -13134   13122       1   13092   13110   13125   13146       1
   13092   13113  -13128   13146       1   13092   13113   13128   13149       1
   13089   13074   13086   13101       1   13089   13110   13092   13113       1
   13089   13110   13125   13146       1   13086   13074   13089   13110       1
   13086   13101   13080   13098       1   13086   13101   13122   13134       1
   13080   13098   13116   13134       1   13080   13101  -13122   13134       1
   13077   13068   13071   13080       1   13077   13068   13074   13086       1
   13077   13068   13074   13089       1   13077   13092  -13110   13089       1
   13077   13092   13110   13125       1   13077   13092   13113   13128       1
   13074   13068   13071   13080       1   13074   13068   13077   13092       1
   13074   13086  -13101   13080       1   13074   13086   13101   13122       1
   13074   13089  -13110   13092       1   13074   13089   13110   13125       1
   13071   13068   13074   13086       1   13071   13068   13074   13089       1
   13071   13068   13077   13092       1   13071   13080   13098   13116       1
   13071   13080  -13101   13086       1   13071   13080   13101   13122       1
   13068   13071   13080   13098       1   13068   13071   13080   13101       1
   13068   13074  -13086   13101       1   13068   13074   13089   13110       1
   13068   13077  -13092   13110       1   13068   13077   13092   13113       1
   13257   13236   13254   13263       1   13257   13266  -13272   13263       1
   13254   13236   13257   13266       1   13254   13263  -13272   13266       1
   13236   13254   13263   13272       1   13236   13257  -13266   13272       1
   13233   13254   13236   13257       1   13233   13254   13263   13272       1
   13221   13200   13218   13233       1   13221   13236  -13254   13233       1
   13221   13236   13254   13263       1   13221   13236   13257   13266       1
   13218   13200   13221   13236       1   13218   13233  -13254   13236       1
   13218   13233   13254   13263       1   13209   13188   13206   13224       1
   13209   13230  -13242   13224       1   13206   13188   13209   13230       1
   13206   13224  -13242   13230       1   13200   13218   13233   13254       1
   13200   13221  -13236   13254       1   13200   13221   13236   13257       1
   13197   13182   13194   13209       1   13197   13218   13200   13221       1
   13197   13218   13233   13254       1   13194   13182   13197   13218       1
   13194   13209   13188   13206       1   13194   13209   13230   13242       1
   13188   13206   13224   13242       1   13188   13209  -13230   13242       1
   13185   13176   13179   13188       1   13185   13176   13182   13194       1
   13185   13176   13182   13197       1   13185   13200  -13218   13197       1
   13185   13200   13218   13233       1   13185   13200   13221   13236       1
   13182   13176   13179   13188       1   13182   13176   13185   13200       1
   13182   13194  -13209   13188       1   13182   13194   13209   13230       1
   13182   13197  -13218   13200       1   13182   13197   13218   13233       1
   13179   13176   13182   13194       1   13179   13176   13182   13197       1
   13179   13176   13185   13200       1   13179   13188   13206   13224       1
   13179   13188  -13209   13194       1   13179   13188   13209   13230       1
   13176   13179   13188   13206       1   13176   13179   13188   13209       1
   13176   13182  -13194   13209       1   13176   13182   13197   13218       1
   13176   13185  -13200   13218       1   13176   13185   13200   13221       1
   13365   13344   13362   13371       1   13365   13374  -13380   13371       1
   13362   13344   13365   13374       1   13362   13371  -13380   13374       1
   13344   13362   13371   13380       1   13344   13365  -13374   13380       1
   13341   13362   13344   13365       1   13341   13362   13371   13380       1
   13329   13308   13326   13341       1   13329   13344  -13362   13341       1
   13329   13344   13362   13371       1   13329   13344   13365   13374       1
   13326   13308   13329   13344       1   13326   13341  -13362   13344       1
   13326   13341   13362   13371       1   13317   13296   13314   13332       1
   13317   13338  -13350   13332       1   13314   13296   13317   13338       1
   13314   13332  -13350   13338       1   13308   13326   13341   13362       1
   13308   13329  -13344   13362       1   13308   13329   13344   13365       1
   13305   13290   13302   13317       1   13305   13326   13308   13329       1
   13305   13326   13341   13362       1   13302   13290   13305   13326       1
   13302   13317   13296   13314       1   13302   13317   13338   13350       1
   13296   13314   13332   13350       1   13296   13317  -13338   13350       1
   13293   13284   13287   13296       1   13293   13284   13290   13302       1
   13293   13284   13290   13305       1   13293   13308  -13326   13305       1
   13293   13308   13326   13341       1   13293   13308   13329   13344       1
   13290   13284   13287   13296       1   13290   13284   13293   13308       1
   13290   13302  -13317   13296       1   13290   13302   13317   13338       1
   13290   13305  -13326   13308       1   13290   13305   13326   13341       1
   13287   13284   13290   13302       1   13287   13284   13290   13305       1
   13287   13284   13293   13308       1   13287   13296   13314   13332       1
   13287   13296  -13317   13302       1   13287   13296   13317   13338       1
   13284   13287   13296   13314       1   13284   13287   13296   13317       1
   13284   13290  -13302   13317       1   13284   13290   13305   13326       1
   13284   13293  -13308   13326       1   13284   13293   13308   13329       1
   13473   13452   13470   13479       1   13473   13482  -13488   13479       1
   13470   13452   13473   13482       1   13470   13479  -13488   13482       1
   13452   13470   13479   13488       1   13452   13473  -13482   13488       1
   13449   13470   13452   13473       1   13449   13470   13479   13488       1
   13437   13416   13434   13449       1   13437   13452  -13470   13449       1
   13437   13452   13470   13479       1   13437   13452   13473   13482       1
   13434   13416   13437   13452       1   13434   13449  -13470   13452       1
   13434   13449   13470   13479       1   13425   13404   13422   13440       1
   13425   13446  -13458   13440       1   13422   13404   13425   13446       1
   13422   13440  -13458   13446       1   13416   13434   13449   13470       1
   13416   13437  -13452   13470       1   13416   13437   13452   13473       1
   13413   13398   13410   13425       1   13413   13434   13416   13437       1
   13413   13434   13449   13470       1   13410   13398   13413   13434       1
   13410   13425   13404   13422       1   13410   13425   13446   13458       1
   13404   13422   13440   13458       1   13404   13425  -13446   13458       1
   13401   13392   13395   13404       1   13401   13392   13398   13410       1
   13401   13392   13398   13413       1   13401   13416  -13434   13413       1
   13401   13416   13434   13449       1   13401   13416   13437   13452       1
   13398   13392   13395   13404       1   13398   13392   13401   13416       1
   13398   13410  -13425   13404       1   13398   13410   13425   13446       1
   13398   13413  -13434   13416       1   13398   13413   13434   13449       1
   13395   13392   13398   13410       1   13395   13392   13398   13413       1
   13395   13392   13401   13416       1   13395   13404   13422   13440       1
   13395   13404  -13425   13410       1   13395   13404   13425   13446       1
   13392   13395   13404   13422       1   13392   13395   13404   13425       1
   13392   13398  -13410   13425       1   13392   13398   13413   13434       1
   13392   13401  -13416   13434       1   13392   13401   13416   13437       1
   13581   13560   13578   13587       1   13581   13590  -13596   13587       1
   13578   13560   13581   13590       1   13578   13587  -13596   13590       1
   13560   13578   13587   13596       1   13560   13581  -13590   13596       1
   13557   13578   13560   13581       1   13557   13578   13587   13596       1
   13545   13524   13542   13557       1   13545   13560  -13578   13557       1
   13545   13560   13578   13587       1   13545   13560   13581   13590       1
   13542   13524   13545   13560       1   13542   13557  -13578   13560       1
   13542   13557   13578   13587       1   13533   13512   13530   13548       1
   13533   13554  -13566   13548       1   13530   13512   13533   13554       1
   13530   13548  -13566   13554       1   13524   13542   13557   13578       1
   13524   13545  -13560   13578       1   13524   13545   13560   13581       1
   13521   13506   13518   13533       1   13521   13542   13524   13545       1
   13521   13542   13557   13578       1   13518   13506   13521   13542       1
   13518   13533   13512   13530       1   13518   13533   13554   13566       1
   13512   13530   13548   13566       1   13512   13533  -13554   13566       1
   13509   13500   13503   13512       1   13509   13500   13506   13518       1
   13509   13500   13506   13521       1   13509   13524  -13542   13521       1
   13509   13524   13542   13557       1   13509   13524   13545   13560       1
   13506   13500   13503   13512       1   13506   13500   13509   13524       1
   13506   13518  -13533   13512       1   13506   13518   13533   13554       1
   13506   13521  -13542   13524       1   13506   13521   13542   13557       1
   13503   13500   13506   13518       1   13503   13500   13506   13521       1
   13503   13500   13509   13524       1   13503   13512   13530   13548       1
   13503   13512  -13533   13518       1   13503   13512   13533   13554       1
   13500   13503   13512   13530       1   13500   13503   13512   13533       1
   13500   13506  -13518   13533       1   13500   13506   13521   13542       1
   13500   13509  -13524   13542       1   13500   13509   13524   13545       1
   13689   13668   13686   13695       1   13689   13698  -13704   13695       1
   13686   13668   13689   13698       1   13686   13695  -13704   13698       1
   13668   13686   13695   13704       1   13668   13689  -13698   13704       1
   13665   13686   13668   13689       1   13665   13686   13695   13704       1
   13653   13632   13650   13665       1   13653   13668  -13686   13665       1
   13653   13668   13686   13695       1   13653   13668   13689   13698       1
   13650   13632   13653   13668       1   13650   13665  -13686   13668       1
   13650   13665   13686   13695       1   13641   13620   13638   13656       1
   13641   13662  -13674   13656       1   13638   13620   13641   13662       1
   13638   13656  -13674   13662       1   13632   13650   13665   13686       1
   13632   13653  -13668   13686       1   13632   13653   13668   13689       1
   13629   13614   13626   13641       1   13629   13650   13632   13653       1
   13629   13650   13665   13686       1   13626   13614   13629   13650       1
   13626   13641   13620   13638       1   13626   13641   13662   13674       1
   13620   13638   13656   13674       1   13620   13641  -13662   13674       1
   13617   13608   13611   13620       1   13617   13608   13614   13626       1
   13617   13608   13614   13629       1   13617   13632  -13650   13629       1
   13617   13632   13650   13665       1   13617   13632   13653   13668       1
   13614   13608   13611   13620       1   13614   13608   13617   13632       1
   13614   13626  -13641   13620       1   13614   13626   13641   13662       1
   13614   13629  -13650   13632       1   13614   13629   13650   13665       1
   13611   13608   13614   13626       1   13611   13608   13614   13629       1
   13611   13608   13617   13632       1   13611   13620   13638   13656       1
   13611   13620  -13641   13626       1   13611   13620   13641   13662       1
   13608   13611   13620   13638       1   13608   13611   13620   13641       1
   13608   13614  -13626   13641       1   13608   13614   13629   13650       1
   13608   13617  -13632   13650       1   13608   13617   13632   13653       1
   13797   13776   13794   13803       1   13797   13806  -13812   13803       1
   13794   13776   13797   13806       1   13794   13803  -13812   13806       1
   13776   13794   13803   13812       1   13776   13797  -13806   13812       1
   13773   13794   13776   13797       1   13773   13794   13803   13812       1
   13761   13740   13758   13773       1   13761   13776  -13794   13773       1
   13761   13776   13794   13803       1   13761   13776   13797   13806       1
   13758   13740   13761   13776       1   13758   13773  -13794   13776       1
   13758   13773   13794   13803       1   13749   13728   13746   13764       1
   13749   13770  -13782   13764       1   13746   13728   13749   13770       1
   13746   13764  -13782   13770       1   13740   13758   13773   13794       1
   13740   13761  -13776   13794       1   13740   13761   13776   13797       1
   13737   13722   13734   13749       1   13737   13758   13740   13761       1
   13737   13758   13773   13794       1   13734   13722   13737   13758       1
   13734   13749   13728   13746       1   13734   13749   13770   13782       1
   13728   13746   13764   13782       1   13728   13749  -13770   13782       1
   13725   13716   13719   13728       1   13725   13716   13722   13734       1
   13725   13716   13722   13737       1   13725   13740  -13758   13737       1
   13725   13740   13758   13773       1   13725   13740   13761   13776       1
   13722   13716   13719   13728       1   13722   13716   13725   13740       1
   13722   13734  -13749   13728       1   13722   13734   13749   13770       1
   13722   13737  -13758   13740       1   13722   13737   13758   13773       1
   13719   13716   13722   13734       1   13719   13716   13722   13737       1
   13719   13716   13725   13740       1   13719   13728   13746   13764       1
   13719   13728  -13749   13734       1   13719   13728   13749   13770       1
   13716   13719   13728   13746       1   13716   13719   13728   13749       1
   13716   13722  -13734   13749       1   13716   13722   13737   13758       1
   13716   13725  -13740   13758       1   13716   13725   13740   13761       1
   13905   13884   13902   13911       1   13905   13914  -13920   13911       1
   13902   13884   13905   13914       1   13902   13911  -13920   13914       1
   13884   13902   13911   13920       1   13884   13905  -13914   13920       1
   13881   13902   13884   13905       1   13881   13902   13911   13920       1
   13869   13848   13866   13881       1   13869   13884  -13902   13881       1
   13869   13884   13902   13911       1   13869   13884   13905   13914       1
   13866   13848   13869   13884       1   13866   13881  -13902   13884       1
   13866   13881   13902   13911       1   13857   13836   13854   13872       1
   13857   13878  -13890   13872       1   13854   13836   13857   13878       1
   13854   13872  -13890   13878       1   13848   13866   13881   13902       1
   13848   13869  -13884   13902       1   13848   13869   13884   13905       1
   13845   13830   13842   13857       1   13845   13866   13848   13869       1
   13845   13866   13881   13902       1   13842   13830   13845   13866       1
   13842   13857   13836   13854       1   13842   13857   13878   13890       1
   13836   13854   13872   13890       1   13836   13857  -13878   13890       1
   13833   13824   13827   13836       1   13833   13824   13830   13842       1
   13833   13824   13830   13845       1   13833   13848  -13866   13845       1
   13833   13848   13866   13881       1   13833   13848   13869   13884       1
   13830   13824   13827   13836       1   13830   13824   13833   13848       1
   13830   13842  -13857   13836       1   13830   13842   13857   13878       1
   13830   13845  -13866   13848       1   13830   13845   13866   13881       1
   13827   13824   13830   13842       1   13827   13824   13830   13845       1
   13827   13824   13833   13848       1   13827   13836   13854   13872       1
   13827   13836  -13857   13842       1   13827   13836   13857   13878       1
   13824   13827   13836   13854       1   13824   13827   13836   13857       1
   13824   13830  -13842   13857       1   13824   13830   13845   13866       1
   13824   13833  -13848   13866       1   13824   13833   13848   13869       1
   14013   13992   14010   14019       1   14013   14022  -14028   14019       1
   14010   13992   14013   14022       1   14010   14019  -14028   14022       1
   13992   14010   14019   14028       1   13992   14013  -14022   14028       1
   13989   14010   13992   14013       1   13989   14010   14019   14028       1
   13977   13956   13974   13989       1   13977   13992  -14010   13989       1
   13977   13992   14010   14019       1   13977   13992   14013   14022       1
   13974   13956   13977   13992       1   13974   13989  -14010   13992       1
   13974   13989   14010   14019       1   13965   13944   13962   13980       1
   13965   13986  -13998   13980       1   13962   13944   13965   13986       1
   13962   13980  -13998   13986       1   13956   13974   13989   14010       1
   13956   13977  -13992   14010       1   13956   13977   13992   14013       1
   13953   13938   13950   13965       1   13953   13974   13956   13977       1
   13953   13974   13989   14010       1   13950   13938   13953   13974       1
   13950   13965   13944   13962       1   13950   13965   13986   13998       1
   13944   13962   13980   13998       1   13944   13965  -13986   13998       1
   13941   13932   13935   13944       1   13941   13932   13938   13950       1
   13941   13932   13938   13953       1   13941   13956  -13974   13953       1
   13941   13956   13974   13989       1   13941   13956   13977   13992       1
   13938   13932   13935   13944       1   13938   13932   13941   13956       1
   13938   13950  -13965   13944       1   13938   13950   13965   13986       1
   13938   13953  -13974   13956       1   13938   13953   13974   13989       1
   13935   13932   13938   13950       1   13935   13932   13938   13953       1
   13935   13932   13941   13956       1   13935   13944   13962   13980       1
   13935   13944  -13965   13950       1   13935   13944   13965   13986       1
   13932   13935   13944   13962       1   13932   13935   13944   13965       1
   13932   13938  -13950   13965       1   13932   13938   13953   13974       1
   13932   13941  -13956   13974       1   13932   13941   13956   13977       1
   14121   14100   14118   14127       1   14121   14130  -14136   14127       1
   14118   14100   14121   14130       1   14118   14127  -14136   14130       1
   14100   14118   14127   14136       1   14100   14121  -14130   14136       1
   14097   14118   14100   14121       1   14097   14118   14127   14136       1
   14085   14064   14082   14097       1   14085   14100  -14118   14097       1
   14085   14100   14118   14127       1   14085   14100   14121   14130       1
   14082   14064   14085   14100       1   14082   14097  -14118   14100       1
   14082   14097   14118   14127       1   14073   14052   14070   14088       1
   14073   14094  -14106   14088       1   14070   14052   14073   14094       1
   14070   14088  -14106   14094       1   14064   14082   14097   14118       1
   14064   14085  -14100   14118       1   14064   14085   14100   14121       1
   14061   14046   14058   14073       1   14061   14082   14064   14085       1
   14061   14082   14097   14118       1   14058   14046   14061   14082       1
   14058   14073   14052   14070       1   14058   14073   14094   14106       1
   14052   14070   14088   14106       1   14052   14073  -14094   14106       1
   14049   14040   14043   14052       1   14049   14040   14046   14058       1
   14049   14040   14046   14061       1   14049   14064  -14082   14061       1
   14049   14064   14082   14097       1   14049   14064   14085   14100       1
   14046   14040   14043   14052       1   14046   14040   14049   14064       1
   14046   14058  -14073   14052       1   14046   14058   14073   14094       1
   14046   14061  -14082   14064       1   14046   14061   14082   14097       1
   14043   14040   14046   14058       1   14043   14040   14046   14061       1
   14043   14040   14049   14064       1   14043   14052   14070   14088       1
   14043   14052  -14073   14058       1   14043   14052   14073   14094       1
   14040   14043   14052   14070       1   14040   14043   14052   14073       1
   14040   14046  -14058   14073       1   14040   14046   14061   14082       1
   14040   14049  -14064   14082       1   14040   14049   14064   14085       1
   14229   14208   14226   14235       1   14229   14238  -14244   14235       1
   14226   14208   14229   14238       1   14226   14235  -14244   14238       1
   14208   14226   14235   14244       1   14208   14229  -14238   14244       1
   14205   14226   14208   14229       1   14205   14226   14235   14244       1
   14193   14172   14190   14205       1   14193   14208  -14226   14205       1
   14193   14208   14226   14235       1   14193   14208   14229   14238       1
   14190   14172   14193   14208       1   14190   14205  -14226   14208       1
   14190   14205   14226   14235       1   14181   14160   14178   14196       1
   14181   14202  -14214   14196       1   14178   14160   14181   14202       1
   14178   14196  -14214   14202       1   14172   14190   14205   14226       1
   14172   14193  -14208   14226       1   14172   14193   14208   14229       1
   14169   14154   14166   14181       1   14169   14190   14172   14193       1
   14169   14190   14205   14226       1   14166   14154   14169   14190       1
   14166   14181   14160   14178       1   14166   14181   14202   14214       1
   14160   14178   14196   14214       1   14160   14181  -14202   14214       1
   14157   14148   14151   14160       1   14157   14148   14154   14166       1
   14157   14148   14154   14169       1   14157   14172  -14190   14169       1
   14157   14172   14190   14205       1   14157   14172   14193   14208       1
   14154   14148   14151   14160       1   14154   14148   14157   14172       1
   14154   14166  -14181   14160       1   14154   14166   14181   14202       1
   14154   14169  -14190   14172       1   14154   14169   14190   14205       1
   14151   14148   14154   14166       1   14151   14148   14154   14169       1
   14151   14148   14157   14172       1   14151   14160   14178   14196       1
   14151   14160  -14181   14166       1   14151   14160   14181   14202       1
   14148   14151   14160   14178       1   14148   14151   14160   14181       1
   14148   14154  -14166   14181       1   14148   14154   14169   14190       1
   14148   14157  -14172   14190       1   14148   14157   14172   14193       1
   14337   14316   14334   14343       1   14337   14346  -14352   14343       1
   14334   14316   14337   14346       1   14334   14343  -14352   14346       1
   14316   14334   14343   14352       1   14316   14337  -14346   14352       1
   14313   14334   14316   14337       1   14313   14334   14343   14352       1
   14301   14280   14298   14313       1   14301   14316  -14334   14313       1
   14301   14316   14334   14343       1   14301   14316   14337   14346       1
   14298   14280   14301   14316       1   14298   14313  -14334   14316       1
   14298   14313   14334   14343       1   14289   14268   14286   14304       1
   14289   14310  -14322   14304       1   14286   14268   14289   14310       1
   14286   14304  -14322   14310       1   14280   14298   14313   14334       1
   14280   14301  -14316   14334       1   14280   14301   14316   14337       1
   14277   14262   14274   14289       1   14277   14298   14280   14301       1
   14277   14298   14313   14334       1   14274   14262   14277   14298       1
   14274   14289   14268   14286       1   14274   14289   14310   14322       1
   14268   14286   14304   14322       1   14268   14289  -14310   14322       1
   14265   14256   14259   14268       1   14265   14256   14262   14274       1
   14265   14256   14262   14277       1   14265   14280  -14298   14277       1
   14265   14280   14298   14313       1   14265   14280   14301   14316       1
   14262   14256   14259   14268       1   14262   14256   14265   14280       1
   14262   14274  -14289   14268       1   14262   14274   14289   14310       1
   14262   14277  -14298   14280       1   14262   14277   14298   14313       1
   14259   14256   14262   14274       1   14259   14256   14262   14277       1
   14259   14256   14265   14280       1   14259   14268   14286   14304       1
   14259   14268  -14289   14274       1   14259   14268   14289   14310       1
   14256   14259   14268   14286       1   14256   14259   14268   14289       1
   14256   14262  -14274   14289       1   14256   14262   14277   14298       1
   14256   14265  -14280   14298       1   14256   14265   14280   14301       1
   14445   14424   14442   14451       1   14445   14454  -14460   14451       1
   14442   14424   14445   14454       1   14442   14451  -14460   14454       1
   14424   14442   14451   14460       1   14424   14445  -14454   14460       1
   14421   14442   14424   14445       1   14421   14442   14451   14460       1
   14409   14388   14406   14421       1   14409   14424  -14442   14421       1
   14409   14424   14442   14451       1   14409   14424   14445   14454       1
   14406   14388   14409   14424       1   14406   14421  -14442   14424       1
   14406   14421   14442   14451       1   14397   14376   14394   14412       1
   14397   14418  -14430   14412       1   14394   14376   14397   14418       1
   14394   14412  -14430   14418       1   14388   14406   14421   14442       1
   14388   14409  -14424   14442       1   14388   14409   14424   14445       1
   14385   14370   14382   14397       1   14385   14406   14388   14409       1
   14385   14406   14421   14442       1   14382   14370   14385   14406       1
   14382   14397   14376   14394       1   14382   14397   14418   14430       1
   14376   14394   14412   14430       1   14376   14397  -14418   14430       1
   14373   14364   14367   14376       1   14373   14364   14370   14382       1
   14373   14364   14370   14385       1   14373   14388  -14406   14385       1
   14373   14388   14406   14421       1   14373   14388   14409   14424       1
   14370   14364   14367   14376       1   14370   14364   14373   14388       1
   14370   14382  -14397   14376       1   14370   14382   14397   14418       1
   14370   14385  -14406   14388       1   14370   14385   14406   14421       1
   14367   14364   14370   14382       1   14367   14364   14370   14385       1
   14367   14364   14373   14388       1   14367   14376   14394   14412       1
   14367   14376  -14397   14382       1   14367   14376   14397   14418       1
   14364   14367   14376   14394       1   14364   14367   14376   14397       1
   14364   14370  -14382   14397       1   14364   14370   14385   14406       1
   14364   14373  -14388   14406       1   14364   14373   14388   14409       1
   14553   14532   14550   14559       1   14553   14562  -14568   14559       1
   14550   14532   14553   14562       1   14550   14559  -14568   14562       1
   14532   14550   14559   14568       1   14532   14553  -14562   14568       1
   14529   14550   14532   14553       1   14529   14550   14559   14568       1
   14517   14496   14514   14529       1   14517   14532  -14550   14529       1
   14517   14532   14550   14559       1   14517   14532   14553   14562       1
   14514   14496   14517   14532       1   14514   14529  -14550   14532       1
   14514   14529   14550   14559       1   14505   14484   14502   14520       1
   14505   14526  -14538   14520       1   14502   14484   14505   14526       1
   14502   14520  -14538   14526       1   14496   14514   14529   14550       1
   14496   14517  -14532   14550       1   14496   14517   14532   14553       1
   14493   14478   14490   14505       1   14493   14514   14496   14517       1
   14493   14514   14529   14550       1   14490   14478   14493   14514       1
   14490   14505   14484   14502       1   14490   14505   14526   14538       1
   14484   14502   14520   14538       1   14484   14505  -14526   14538       1
   14481   14472   14475   14484       1   14481   14472   14478   14490       1
   14481   14472   14478   14493       1   14481   14496  -14514   14493       1
   14481   14496   14514   14529       1   14481   14496   14517   14532       1
   14478   14472   14475   14484       1   14478   14472   14481   14496       1
   14478   14490  -14505   14484       1   14478   14490   14505   14526       1
   14478   14493  -14514   14496       1   14478   14493   14514   14529       1
   14475   14472   14478   14490       1   14475   14472   14478   14493       1
   14475   14472   14481   14496       1   14475   14484   14502   14520       1
   14475   14484  -14505   14490       1   14475   14484   14505   14526       1
   14472   14475   14484   14502       1   14472   14475   14484   14505       1
   14472   14478  -14490   14505       1   14472   14478   14493   14514       1
   14472   14481  -14496   14514       1   14472   14481   14496   14517       1
   14661   14640   14658   14667       1   14661   14670  -14676   14667       1
   14658   14640   14661   14670       1   14658   14667  -14676   14670       1
   14640   14658   14667   14676       1   14640   14661  -14670   14676       1
   14637   14658   14640   14661       1   14637   14658   14667   14676       1
   14625   14604   14622   14637       1   14625   14640  -14658   14637       1
   14625   14640   14658   14667       1   14625   14640   14661   14670       1
   14622   14604   14625   14640       1   14622   14637  -14658   14640       1
   14622   14637   14658   14667       1   14613   14592   14610   14628       1
   14613   14634  -14646   14628       1   14610   14592   14613   14634       1
   14610   14628  -14646   14634       1   14604   14622   14637   14658       1
   14604   14625  -14640   14658       1   14604   14625   14640   14661       1
   14601   14586   14598   14613       1   14601   14622   14604   14625       1
   14601   14622   14637   14658       1   14598   14586   14601   14622       1
   14598   14613   14592   14610       1   14598   14613   14634   14646       1
   14592   14610   14628   14646       1   14592   14613  -14634   14646       1
   14589   14580   14583   14592       1   14589   14580   14586   14598       1
   14589   14580   14586   14601       1   14589   14604  -14622   14601       1
   14589   14604   14622   14637       1   14589   14604   14625   14640       1
   14586   14580   14583   14592       1   14586   14580   14589   14604       1
   14586   14598  -14613   14592       1   14586   14598   14613   14634       1
   14586   14601  -14622   14604       1   14586   14601   14622   14637       1
   14583   14580   14586   14598       1   14583   14580   14586   14601       1
   14583   14580   14589   14604       1   14583   14592   14610   14628       1
   14583   14592  -14613   14598       1   14583   14592   14613   14634       1
   14580   14583   14592   14610       1   14580   14583   14592   14613       1
   14580   14586  -14598   14613       1   14580   14586   14601   14622       1
   14580   14589  -14604   14622       1   14580   14589   14604   14625       1
   14769   14748   14766   14775       1   14769   14778  -14784   14775       1
   14766   14748   14769   14778       1   14766   14775  -14784   14778       1
   14748   14766   14775   14784       1   14748   14769  -14778   14784       1
   14745   14766   14748   14769       1   14745   14766   14775   14784       1
   14733   14712   14730   14745       1   14733   14748  -14766   14745       1
   14733   14748   14766   14775       1   14733   14748   14769   14778       1
   14730   14712   14733   14748       1   14730   14745  -14766   14748       1
   14730   14745   14766   14775       1   14721   14700   14718   14736       1
   14721   14742  -14754   14736       1   14718   14700   14721   14742       1
   14718   14736  -14754   14742       1   14712   14730   14745   14766       1
   14712   14733  -14748   14766       1   14712   14733   14748   14769       1
   14709   14694   14706   14721       1   14709   14730   14712   14733       1
   14709   14730   14745   14766       1   14706   14694   14709   14730       1
   14706   14721   14700   14718       1   14706   14721   14742   14754       1
   14700   14718   14736   14754       1   14700   14721  -14742   14754       1
   14697   14688   14691   14700       1   14697   14688   14694   14706       1
   14697   14688   14694   14709       1   14697   14712  -14730   14709       1
   14697   14712   14730   14745       1   14697   14712   14733   14748       1
   14694   14688   14691   14700       1   14694   14688   14697   14712       1
   14694   14706  -14721   14700       1   14694   14706   14721   14742       1
   14694   14709  -14730   14712       1   14694   14709   14730   14745       1
   14691   14688   14694   14706       1   14691   14688   14694   14709       1
   14691   14688   14697   14712       1   14691   14700   14718   14736       1
   14691   14700  -14721   14706       1   14691   14700   14721   14742       1
   14688   14691   14700   14718       1   14688   14691   14700   14721       1
   14688   14694  -14706   14721       1   14688   14694   14709   14730       1
   14688   14697  -14712   14730       1   14688   14697   14712   14733       1
   14877   14856   14874   14883       1   14877   14886  -14892   14883       1
   14874   14856   14877   14886       1   14874   14883  -14892   14886       1
   14856   14874   14883   14892       1   14856   14877  -14886   14892       1
   14853   14874   14856   14877       1   14853   14874   14883   14892       1
   14841   14820   14838   14853       1   14841   14856  -14874   14853       1
   14841   14856   14874   14883       1   14841   14856   14877   14886       1
   14838   14820   14841   14856       1   14838   14853  -14874   14856       1
   14838   14853   14874   14883       1   14829   14808   14826   14844       1
   14829   14850  -14862   14844       1   14826   14808   14829   14850       1
   14826   14844  -14862   14850       1   14820   14838   14853   14874       1
   14820   14841  -14856   14874       1   14820   14841   14856   14877       1
   14817   14802   14814   14829       1   14817   14838   14820   14841       1
   14817   14838   14853   14874       1   14814   14802   14817   14838       1
   14814   14829   14808   14826       1   14814   14829   14850   14862       1
   14808   14826   14844   14862       1   14808   14829  -14850   14862       1
   14805   14796   14799   14808       1   14805   14796   14802   14814       1
   14805   14796   14802   14817       1   14805   14820  -14838   14817       1
   14805   14820   14838   14853       1   14805   14820   14841   14856       1
   14802   14796   14799   14808       1   14802   14796   14805   14820       1
   14802   14814  -14829   14808       1   14802   14814   14829   14850       1
   14802   14817  -14838   14820       1   14802   14817   14838   14853       1
   14799   14796   14802   14814       1   14799   14796   14802   14817       1
   14799   14796   14805   14820       1   14799   14808   14826   14844       1
   14799   14808  -14829   14814       1   14799   14808   14829   14850       1
   14796   14799   14808   14826       1   14796   14799   14808   14829       1
   14796   14802  -14814   14829       1   14796   14802   14817   14838       1
   14796   14805  -14820   14838       1   14796   14805   14820   14841       1
   14985   14964   14982   14991       1   14985   14994  -15000   14991       1
   14982   14964   14985   14994       1   14982   14991  -15000   14994       1
   14964   14982   14991   15000       1   14964   14985  -14994   15000       1
   14961   14982   14964   14985       1   14961   14982   14991   15000       1
   14949   14928   14946   14961       1   14949   14964  -14982   14961       1
   14949   14964   14982   14991       1   14949   14964   14985   14994       1
   14946   14928   14949   14964       1   14946   14961  -14982   14964       1
   14946   14961   14982   14991       1   14937   14916   14934   14952       1
   14937   14958  -14970   14952       1   14934   14916   14937   14958       1
   14934   14952  -14970   14958       1   14928   14946   14961   14982       1
   14928   14949  -14964   14982       1   14928   14949   14964   14985       1
   14925   14910   14922   14937       1   14925   14946   14928   14949       1
   14925   14946   14961   14982       1   14922   14910   14925   14946       1
   14922   14937   14916   14934       1   14922   14937   14958   14970       1
   14916   14934   14952   14970       1   14916   14937  -14958   14970       1
   14913   14904   14907   14916       1   14913   14904   14910   14922       1
   14913   14904   14910   14925       1   14913   14928  -14946   14925       1
   14913   14928   14946   14961       1   14913   14928   14949   14964       1
   14910   14904   14907   14916       1   14910   14904   14913   14928       1
   14910   14922  -14937   14916       1   14910   14922   14937   14958       1
   14910   14925  -14946   14928       1   14910   14925   14946   14961       1
   14907   14904   14910   14922       1   14907   14904   14910   14925       1
   14907   14904   14913   14928       1   14907   14916   14934   14952       1
   14907   14916  -14937   14922       1   14907   14916   14937   14958       1
   14904   14907   14916   14934       1   14904   14907   14916   14937       1
   14904   14910  -14922   14937       1   14904   14910   14925   14946       1
   14904   14913  -14928   14946       1   14904   14913   14928   14949       1
   15093   15072   15090   15099       1   15093   15102  -15108   15099       1
   15090   15072   15093   15102       1   15090   15099  -15108   15102       1
   15072   15090   15099   15108       1   15072   15093  -15102   15108       1
   15069   15090   15072   15093       1   15069   15090   15099   15108       1
   15057   15036   15054   15069       1   15057   15072  -15090   15069       1
   15057   15072   15090   15099       1   15057   15072   15093   15102       1
   15054   15036   15057   15072       1   15054   15069  -15090   15072       1
   15054   15069   15090   15099       1   15045   15024   15042   15060       1
   15045   15066  -15078   15060       1   15042   15024   15045   15066       1
   15042   15060  -15078   15066       1   15036   15054   15069   15090       1
   15036   15057  -15072   15090       1   15036   15057   15072   15093       1
   15033   15018   15030   15045       1   15033   15054   15036   15057       1
   15033   15054   15069   15090       1   15030   15018   15033   15054       1
   15030   15045   15024   15042       1   15030   15045   15066   15078       1
   15024   15042   15060   15078       1   15024   15045  -15066   15078       1
   15021   15012   15015   15024       1   15021   15012   15018   15030       1
   15021   15012   15018   15033       1   15021   15036  -15054   15033       1
   15021   15036   15054   15069       1   15021   15036   15057   15072       1
   15018   15012   15015   15024       1   15018   15012   15021   15036       1
   15018   15030  -15045   15024       1   15018   15030   15045   15066       1
   15018   15033  -15054   15036       1   15018   15033   15054   15069       1
   15015   15012   15018   15030       1   15015   15012   15018   15033       1
   15015   15012   15021   15036       1   15015   15024   15042   15060       1
   15015   15024  -15045   15030       1   15015   15024   15045   15066       1
   15012   15015   15024   15042       1   15012   15015   15024   15045       1
   15012   15018  -15030   15045       1   15012   15018   15033   15054       1
   15012   15021  -15036   15054       1   15012   15021   15036   15057       1
   15201   15180   15198   15207       1   15201   15210  -15216   15207       1
   15198   15180   15201   15210       1   15198   15207  -15216   15210       1
   15180   15198   15207   15216       1   15180   15201  -15210   15216       1
   15177   15198   15180   15201       1   15177   15198   15207   15216       1
   15165   15144   15162   15177       1   15165   15180  -15198   15177       1
   15165   15180   15198   15207       1   15165   15180   15201   15210       1
   15162   15144   15165   15180       1   15162   15177  -15198   15180       1
   15162   15177   15198   15207       1   15153   15132   15150   15168       1
   15153   15174  -15186   15168       1   15150   15132   15153   15174       1
   15150   15168  -15186   15174       1   15144   15162   15177   15198       1
   15144   15165  -15180   15198       1   15144   15165   15180   15201       1
   15141   15126   15138   15153       1   15141   15162   15144   15165       1
   15141   15162   15177   15198       1   15138   15126   15141   15162       1
   15138   15153   15132   15150       1   15138   15153   15174   15186       1
   15132   15150   15168   15186       1   15132   15153  -15174   15186       1
   15129   15120   15123   15132       1   15129   15120   15126   15138       1
   15129   15120   15126   15141       1   15129   15144  -15162   15141       1
   15129   15144   15162   15177       1   15129   15144   15165   15180       1
   15126   15120   15123   15132       1   15126   15120   15129   15144       1
   15126   15138  -15153   15132       1   15126   15138   15153   15174       1
   15126   15141  -15162   15144       1   15126   15141   15162   15177       1
   15123   15120   15126   15138       1   15123   15120   15126   15141       1
   15123   15120   15129   15144       1   15123   15132   15150   15168       1
   15123   15132  -15153   15138       1   15123   15132   15153   15174       1
   15120   15123   15132   15150       1   15120   15123   15132   15153       1
   15120   15126  -15138   15153       1   15120   15126   15141   15162       1
   15120   15129  -15144   15162       1   15120   15129   15144   15165       1
   15309   15288   15306   15315       1   15309   15318  -15324   15315       1
   15306   15288   15309   15318       1   15306   15315  -15324   15318       1
   15288   15306   15315   15324       1   15288   15309  -15318   15324       1
   15285   15306   15288   15309       1   15285   15306   15315   15324       1
   15273   15252   15270   15285       1   15273   15288  -15306   15285       1
   15273   15288   15306   15315       1   15273   15288   15309   15318       1
   15270   15252   15273   15288       1   15270   15285  -15306   15288       1
   15270   15285   15306   15315       1   15261   15240   15258   15276       1
   15261   15282  -15294   15276       1   15258   15240   15261   15282       1
   15258   15276  -15294   15282       1   15252   15270   15285   15306       1
   15252   15273  -15288   15306       1   15252   15273   15288   15309       1
   15249   15234   15246   15261       1   15249   15270   15252   15273       1
   15249   15270   15285   15306       1   15246   15234   15249   15270       1
   15246   15261   15240   15258       1   15246   15261   15282   15294       1
   15240   15258   15276   15294       1   15240   15261  -15282   15294       1
   15237   15228   15231   15240       1   15237   15228   15234   15246       1
   15237   15228   15234   15249       1   15237   15252  -15270   15249       1
   15237   15252   15270   15285       1   15237   15252   15273   15288       1
   15234   15228   15231   15240       1   15234   15228   15237   15252       1
   15234   15246  -15261   15240       1   15234   15246   15261   15282       1
   15234   15249  -15270   15252       1   15234   15249   15270   15285       1
   15231   15228   15234   15246       1   15231   15228   15234   15249       1
   15231   15228   15237   15252       1   15231   15240   15258   15276       1
   15231   15240  -15261   15246       1   15231   15240   15261   15282       1
   15228   15231   15240   15258       1   15228   15231   15240   15261       1
   15228   15234  -15246   15261       1   15228   15234   15249   15270       1
   15228   15237  -15252   15270       1   15228   15237   15252   15273       1
   15417   15396   15414   15423       1   15417   15426  -15432   15423       1
   15414   15396   15417   15426       1   15414   15423  -15432   15426       1
   15396   15414   15423   15432       1   15396   15417  -15426   15432       1
   15393   15414   15396   15417       1   15393   15414   15423   15432       1
   15381   15360   15378   15393       1   15381   15396  -15414   15393       1
   15381   15396   15414   15423       1   15381   15396   15417   15426       1
   15378   15360   15381   15396       1   15378   15393  -15414   15396       1
   15378   15393   15414   15423       1   15369   15348   15366   15384       1
   15369   15390  -15402   15384       1   15366   15348   15369   15390       1
   15366   15384  -15402   15390       1   15360   15378   15393   15414       1
   15360   15381  -15396   15414       1   15360   15381   15396   15417       1
   15357   15342   15354   15369       1   15357   15378   15360   15381       1
   15357   15378   15393   15414       1   15354   15342   15357   15378       1
   15354   15369   15348   15366       1   15354   15369   15390   15402       1
   15348   15366   15384   15402       1   15348   15369  -15390   15402       1
   15345   15336   15339   15348       1   15345   15336   15342   15354       1
   15345   15336   15342   15357       1   15345   15360  -15378   15357       1
   15345   15360   15378   15393       1   15345   15360   15381   15396       1
   15342   15336   15339   15348       1   15342   15336   15345   15360       1
   15342   15354  -15369   15348       1   15342   15354   15369   15390       1
   15342   15357  -15378   15360       1   15342   15357   15378   15393       1
   15339   15336   15342   15354       1   15339   15336   15342   15357       1
   15339   15336   15345   15360       1   15339   15348   15366   15384       1
   15339   15348  -15369   15354       1   15339   15348   15369   15390       1
   15336   15339   15348   15366       1   15336   15339   15348   15369       1
   15336   15342  -15354   15369       1   15336   15342   15357   15378       1
   15336   15345  -15360   15378       1   15336   15345   15360   15381       1
   15525   15504   15522   15531       1   15525   15534  -15540   15531       1
   15522   15504   15525   15534       1   15522   15531  -15540   15534       1
   15504   15522   15531   15540       1   15504   15525  -15534   15540       1
   15501   15522   15504   15525       1   15501   15522   15531   15540       1
   15489   15468   15486   15501       1   15489   15504  -15522   15501       1
   15489   15504   15522   15531       1   15489   15504   15525   15534       1
   15486   15468   15489   15504       1   15486   15501  -15522   15504       1
   15486   15501   15522   15531       1   15477   15456   15474   15492       1
   15477   15498  -15510   15492       1   15474   15456   15477   15498       1
   15474   15492  -15510   15498       1   15468   15486   15501   15522       1
   15468   15489  -15504   15522       1   15468   15489   15504   15525       1
   15465   15450   15462   15477       1   15465   15486   15468   15489       1
   15465   15486   15501   15522       1   15462   15450   15465   15486       1
   15462   15477   15456   15474       1   15462   15477   15498   15510       1
   15456   15474   15492   15510       1   15456   15477  -15498   15510       1
   15453   15444   15447   15456       1   15453   15444   15450   15462       1
   15453   15444   15450   15465       1   15453   15468  -15486   15465       1
   15453   15468   15486   15501       1   15453   15468   15489   15504       1
   15450   15444   15447   15456       1   15450   15444   15453   15468       1
   15450   15462  -15477   15456       1   15450   15462   15477   15498       1
   15450   15465  -15486   15468       1   15450   15465   15486   15501       1
   15447   15444   15450   15462       1   15447   15444   15450   15465       1
   15447   15444   15453   15468       1   15447   15456   15474   15492       1
   15447   15456  -15477   15462       1   15447   15456   15477   15498       1
   15444   15447   15456   15474       1   15444   15447   15456   15477       1
   15444   15450  -15462   15477       1   15444   15450   15465   15486       1
   15444   15453  -15468   15486       1   15444   15453   15468   15489       1
   15633   15612   15630   15639       1   15633   15642  -15648   15639       1
   15630   15612   15633   15642       1   15630   15639  -15648   15642       1
   15612   15630   15639   15648       1   15612   15633  -15642   15648       1
   15609   15630   15612   15633       1   15609   15630   15639   15648       1
   15597   15576   15594   15609       1   15597   15612  -15630   15609       1
   15597   15612   15630   15639       1   15597   15612   15633   15642       1
   15594   15576   15597   15612       1   15594   15609  -15630   15612       1
   15594   15609   15630   15639       1   15585   15564   15582   15600       1
   15585   15606  -15618   15600       1   15582   15564   15585   15606       1
   15582   15600  -15618   15606       1   15576   15594   15609   15630       1
   15576   15597  -15612   15630       1   15576   15597   15612   15633       1
   15573   15558   15570   15585       1   15573   15594   15576   15597       1
   15573   15594   15609   15630       1   15570   15558   15573   15594       1
   15570   15585   15564   15582       1   15570   15585   15606   15618       1
   15564   15582   15600   15618       1   15564   15585  -15606   15618       1
   15561   15552   15555   15564       1   15561   15552   15558   15570       1
   15561   15552   15558   15573       1   15561   15576  -15594   15573       1
   15561   15576   15594   15609       1   15561   15576   15597   15612       1
   15558   15552   15555   15564       1   15558   15552   15561   15576       1
   15558   15570  -15585   15564       1   15558   15570   15585   15606       1
   15558   15573  -15594   15576       1   15558   15573   15594   15609       1
   15555   15552   15558   15570       1   15555   15552   15558   15573       1
   15555   15552   15561   15576       1   15555   15564   15582   15600       1
   15555   15564  -15585   15570       1   15555   15564   15585   15606       1
   15552   15555   15564   15582       1   15552   15555   15564   15585       1
   15552   15558  -15570   15585       1   15552   15558   15573   15594       1
   15552   15561  -15576   15594       1   15552   15561   15576   15597       1
   15741   15720   15738   15747       1   15741   15750  -15756   15747       1
   15738   15720   15741   15750       1   15738   15747  -15756   15750       1
   15720   15738   15747   15756       1   15720   15741  -15750   15756       1
   15717   15738   15720   15741       1   15717   15738   15747   15756       1
   15705   15684   15702   15717       1   15705   15720  -15738   15717       1
   15705   15720   15738   15747       1   15705   15720   15741   15750       1
   15702   15684   15705   15720       1   15702   15717  -15738   15720       1
   15702   15717   15738   15747       1   15693   15672   15690   15708       1
   15693   15714  -15726   15708       1   15690   15672   15693   15714       1
   15690   15708  -15726   15714       1   15684   15702   15717   15738       1
   15684   15705  -15720   15738       1   15684   15705   15720   15741       1
   15681   15666   15678   15693       1   15681   15702   15684   15705       1
   15681   15702   15717   15738       1   15678   15666   15681   15702       1
   15678   15693   15672   15690       1   15678   15693   15714   15726       1
   15672   15690   15708   15726       1   15672   15693  -15714   15726       1
   15669   15660   15663   15672       1   15669   15660   15666   15678       1
   15669   15660   15666   15681       1   15669   15684  -15702   15681       1
   15669   15684   15702   15717       1   15669   15684   15705   15720       1
   15666   15660   15663   15672       1   15666   15660   15669   15684       1
   15666   15678  -15693   15672       1   15666   15678   15693   15714       1
   15666   15681  -15702   15684       1   15666   15681   15702   15717       1
   15663   15660   15666   15678       1   15663   15660   15666   15681       1
   15663   15660   15669   15684       1   15663   15672   15690   15708       1
   15663   15672  -15693   15678       1   15663   15672   15693   15714       1
   15660   15663   15672   15690       1   15660   15663   15672   15693       1
   15660   15666  -15678   15693       1   15660   15666   15681   15702       1
   15660   15669  -15684   15702       1   15660   15669   15684   15705       1
   15849   15828   15846   15855       1   15849   15858  -15864   15855       1
   15846   15828   15849   15858       1   15846   15855  -15864   15858       1
   15828   15846   15855   15864       1   15828   15849  -15858   15864       1
   15825   15846   15828   15849       1   15825   15846   15855   15864       1
   15813   15792   15810   15825       1   15813   15828  -15846   15825       1
   15813   15828   15846   15855       1   15813   15828   15849   15858       1
   15810   15792   15813   15828       1   15810   15825  -15846   15828       1
   15810   15825   15846   15855       1   15801   15780   15798   15816       1
   15801   15822  -15834   15816       1   15798   15780   15801   15822       1
   15798   15816  -15834   15822       1   15792   15810   15825   15846       1
   15792   15813  -15828   15846       1   15792   15813   15828   15849       1
   15789   15774   15786   15801       1   15789   15810   15792   15813       1
   15789   15810   15825   15846       1   15786   15774   15789   15810       1
   15786   15801   15780   15798       1   15786   15801   15822   15834       1
   15780   15798   15816   15834       1   15780   15801  -15822   15834       1
   15777   15768   15771   15780       1   15777   15768   15774   15786       1
   15777   15768   15774   15789       1   15777   15792  -15810   15789       1
   15777   15792   15810   15825       1   15777   15792   15813   15828       1
   15774   15768   15771   15780       1   15774   15768   15777   15792       1
   15774   15786  -15801   15780       1   15774   15786   15801   15822       1
   15774   15789  -15810   15792       1   15774   15789   15810   15825       1
   15771   15768   15774   15786       1   15771   15768   15774   15789       1
   15771   15768   15777   15792       1   15771   15780   15798   15816       1
   15771   15780  -15801   15786       1   15771   15780   15801   15822       1
   15768   15771   15780   15798       1   15768   15771   15780   15801       1
   15768   15774  -15786   15801       1   15768   15774   15789   15810       1
   15768   15777  -15792   15810       1   15768   15777   15792   15813       1
   15957   15936   15954   15963       1   15957   15966  -15972   15963       1
   15954   15936   15957   15966       1   15954   15963  -15972   15966       1
   15936   15954   15963   15972       1   15936   15957  -15966   15972       1
   15933   15954   15936   15957       1   15933   15954   15963   15972       1
   15921   15900   15918   15933       1   15921   15936  -15954   15933       1
   15921   15936   15954   15963       1   15921   15936   15957   15966       1
   15918   15900   15921   15936       1   15918   15933  -15954   15936       1
   15918   15933   15954   15963       1   15909   15888   15906   15924       1
   15909   15930  -15942   15924       1   15906   15888   15909   15930       1
   15906   15924  -15942   15930       1   15900   15918   15933   15954       1
   15900   15921  -15936   15954       1   15900   15921   15936   15957       1
   15897   15882   15894   15909       1   15897   15918   15900   15921       1
   15897   15918   15933   15954       1   15894   15882   15897   15918       1
   15894   15909   15888   15906       1   15894   15909   15930   15942       1
   15888   15906   15924   15942       1   15888   15909  -15930   15942       1
   15885   15876   15879   15888       1   15885   15876   15882   15894       1
   15885   15876   15882   15897       1   15885   15900  -15918   15897       1
   15885   15900   15918   15933       1   15885   15900   15921   15936       1
   15882   15876   15879   15888       1   15882   15876   15885   15900       1
   15882   15894  -15909   15888       1   15882   15894   15909   15930       1
   15882   15897  -15918   15900       1   15882   15897   15918   15933       1
   15879   15876   15882   15894       1   15879   15876   15882   15897       1
   15879   15876   15885   15900       1   15879   15888   15906   15924       1
   15879   15888  -15909   15894       1   15879   15888   15909   15930       1
   15876   15879   15888   15906       1   15876   15879   15888   15909       1
   15876   15882  -15894   15909       1   15876   15882   15897   15918       1
   15876   15885  -15900   15918       1   15876   15885   15900   15921       1
   16065   16044   16062   16071       1   16065   16074  -16080   16071       1
   16062   16044   16065   16074       1   16062   16071  -16080   16074       1
   16044   16062   16071   16080       1   16044   16065  -16074   16080       1
   16041   16062   16044   16065       1   16041   16062   16071   16080       1
   16029   16008   16026   16041       1   16029   16044  -16062   16041       1
   16029   16044   16062   16071       1   16029   16044   16065   16074       1
   16026   16008   16029   16044       1   16026   16041  -16062   16044       1
   16026   16041   16062   16071       1   16017   15996   16014   16032       1
   16017   16038  -16050   16032       1   16014   15996   16017   16038       1
   16014   16032  -16050   16038       1   16008   16026   16041   16062       1
   16008   16029  -16044   16062       1   16008   16029   16044   16065       1
   16005   15990   16002   16017       1   16005   16026   16008   16029       1
   16005   16026   16041   16062       1   16002   15990   16005   16026       1
   16002   16017   15996   16014       1   16002   16017   16038   16050       1
   15996   16014   16032   16050       1   15996   16017  -16038   16050       1
   15993   15984   15987   15996       1   15993   15984   15990   16002       1
   15993   15984   15990   16005       1   15993   16008  -16026   16005       1
   15993   16008   16026   16041       1   15993   16008   16029   16044       1
   15990   15984   15987   15996       1   15990   15984   15993   16008       1
   15990   16002  -16017   15996       1   15990   16002   16017   16038       1
   15990   16005  -16026   16008       1   15990   16005   16026   16041       1
   15987   15984   15990   16002       1   15987   15984   15990   16005       1
   15987   15984   15993   16008       1   15987   15996   16014   16032       1
   15987   15996  -16017   16002       1   15987   15996   16017   16038       1
   15984   15987   15996   16014       1   15984   15987   15996   16017       1
   15984   15990  -16002   16017       1   15984   15990   16005   16026       1
   15984   15993  -16008   16026       1   15984   15993   16008   16029       1
   16173   16152   16170   16179       1   16173   16182  -16188   16179       1
   16170   16152   16173   16182       1   16170   16179  -16188   16182       1
   16152   16170   16179   16188       1   16152   16173  -16182   16188       1
   16149   16170   16152   16173       1   16149   16170   16179   16188       1
   16137   16116   16134   16149       1   16137   16152  -16170   16149       1
   16137   16152   16170   16179       1   16137   16152   16173   16182       1
   16134   16116   16137   16152       1   16134   16149  -16170   16152       1
   16134   16149   16170   16179       1   16125   16104   16122   16140       1
   16125   16146  -16158   16140       1   16122   16104   16125   16146       1
   16122   16140  -16158   16146       1   16116   16134   16149   16170       1
   16116   16137  -16152   16170       1   16116   16137   16152   16173       1
   16113   16098   16110   16125       1   16113   16134   16116   16137       1
   16113   16134   16149   16170       1   16110   16098   16113   16134       1
   16110   16125   16104   16122       1   16110   16125   16146   16158       1
   16104   16122   16140   16158       1   16104   16125  -16146   16158       1
   16101   16092   16095   16104       1   16101   16092   16098   16110       1
   16101   16092   16098   16113       1   16101   16116  -16134   16113       1
   16101   16116   16134   16149       1   16101   16116   16137   16152       1
   16098   16092   16095   16104       1   16098   16092   16101   16116       1
   16098   16110  -16125   16104       1   16098   16110   16125   16146       1
   16098   16113  -16134   16116       1   16098   16113   16134   16149       1
   16095   16092   16098   16110       1   16095   16092   16098   16113       1
   16095   16092   16101   16116       1   16095   16104   16122   16140       1
   16095   16104  -16125   16110       1   16095   16104   16125   16146       1
   16092   16095   16104   16122       1   16092   16095   16104   16125       1
   16092   16098  -16110   16125       1   16092   16098   16113   16134       1
   16092   16101  -16116   16134       1   16092   16101   16116   16137       1
   16281   16260   16278   16287       1   16281   16290  -16296   16287       1
   16278   16260   16281   16290       1   16278   16287  -16296   16290       1
   16260   16278   16287   16296       1   16260   16281  -16290   16296       1
   16257   16278   16260   16281       1   16257   16278   16287   16296       1
   16245   16224   16242   16257       1   16245   16260  -16278   16257       1
   16245   16260   16278   16287       1   16245   16260   16281   16290       1
   16242   16224   16245   16260       1   16242   16257  -16278   16260       1
   16242   16257   16278   16287       1   16233   16212   16230   16248       1
   16233   16254  -16266   16248       1   16230   16212   16233   16254       1
   16230   16248  -16266   16254       1   16224   16242   16257   16278       1
   16224   16245  -16260   16278       1   16224   16245   16260   16281       1
   16221   16206   16218   16233       1   16221   16242   16224   16245       1
   16221   16242   16257   16278       1   16218   16206   16221   16242       1
   16218   16233   16212   16230       1   16218   16233   16254   16266       1
   16212   16230   16248   16266       1   16212   16233  -16254   16266       1
   16209   16200   16203   16212       1   16209   16200   16206   16218       1
   16209   16200   16206   16221       1   16209   16224  -16242   16221       1
   16209   16224   16242   16257       1   16209   16224   16245   16260       1
   16206   16200   16203   16212       1   16206   16200   16209   16224       1
   16206   16218  -16233   16212       1   16206   16218   16233   16254       1
   16206   16221  -16242   16224       1   16206   16221   16242   16257       1
   16203   16200   16206   16218       1   16203   16200   16206   16221       1
   16203   16200   16209   16224       1   16203   16212   16230   16248       1
   16203   16212  -16233   16218       1   16203   16212   16233   16254       1
   16200   16203   16212   16230       1   16200   16203   16212   16233       1
   16200   16206  -16218   16233       1   16200   16206   16221   16242       1
   16200   16209  -16224   16242       1   16200   16209   16224   16245       1
   16389   16368   16386   16395       1   16389   16398  -16404   16395       1
   16386   16368   16389   16398       1   16386   16395  -16404   16398       1
   16368   16386   16395   16404       1   16368   16389  -16398   16404       1
   16365   16386   16368   16389       1   16365   16386   16395   16404       1
   16353   16332   16350   16365       1   16353   16368  -16386   16365       1
   16353   16368   16386   16395       1   16353   16368   16389   16398       1
   16350   16332   16353   16368       1   16350   16365  -16386   16368       1
   16350   16365   16386   16395       1   16341   16320   16338   16356       1
   16341   16362  -16374   16356       1   16338   16320   16341   16362       1
   16338   16356  -16374   16362       1   16332   16350   16365   16386       1
   16332   16353  -16368   16386       1   16332   16353   16368   16389       1
   16329   16314   16326   16341       1   16329   16350   16332   16353       1
   16329   16350   16365   16386       1   16326   16314   16329   16350       1
   16326   16341   16320   16338       1   16326   16341   16362   16374       1
   16320   16338   16356   16374       1   16320   16341  -16362   16374       1
   16317   16308   16311   16320       1   16317   16308   16314   16326       1
   16317   16308   16314   16329       1   16317   16332  -16350   16329       1
   16317   16332   16350   16365       1   16317   16332   16353   16368       1
   16314   16308   16311   16320       1   16314   16308   16317   16332       1
   16314   16326  -16341   16320       1   16314   16326   16341   16362       1
   16314   16329  -16350   16332       1   16314   16329   16350   16365       1
   16311   16308   16314   16326       1   16311   16308   16314   16329       1
   16311   16308   16317   16332       1   16311   16320   16338   16356       1
   16311   16320  -16341   16326       1   16311   16320   16341   16362       1
   16308   16311   16320   16338       1   16308   16311   16320   16341       1
   16308   16314  -16326   16341       1   16308   16314   16329   16350       1
   16308   16317  -16332   16350       1   16308   16317   16332   16353       1
   16497   16476   16494   16503       1   16497   16506  -16512   16503       1
   16494   16476   16497   16506       1   16494   16503  -16512   16506       1
   16476   16494   16503   16512       1   16476   16497  -16506   16512       1
   16473   16494   16476   16497       1   16473   16494   16503   16512       1
   16461   16440   16458   16473       1   16461   16476  -16494   16473       1
   16461   16476   16494   16503       1   16461   16476   16497   16506       1
   16458   16440   16461   16476       1   16458   16473  -16494   16476       1
   16458   16473   16494   16503       1   16449   16428   16446   16464       1
   16449   16470  -16482   16464       1   16446   16428   16449   16470       1
   16446   16464  -16482   16470       1   16440   16458   16473   16494       1
   16440   16461  -16476   16494       1   16440   16461   16476   16497       1
   16437   16422   16434   16449       1   16437   16458   16440   16461       1
   16437   16458   16473   16494       1   16434   16422   16437   16458       1
   16434   16449   16428   16446       1   16434   16449   16470   16482       1
   16428   16446   16464   16482       1   16428   16449  -16470   16482       1
   16425   16416   16419   16428       1   16425   16416   16422   16434       1
   16425   16416   16422   16437       1   16425   16440  -16458   16437       1
   16425   16440   16458   16473       1   16425   16440   16461   16476       1
   16422   16416   16419   16428       1   16422   16416   16425   16440       1
   16422   16434  -16449   16428       1   16422   16434   16449   16470       1
   16422   16437  -16458   16440       1   16422   16437   16458   16473       1
   16419   16416   16422   16434       1   16419   16416   16422   16437       1
   16419   16416   16425   16440       1   16419   16428   16446   16464       1
   16419   16428  -16449   16434       1   16419   16428   16449   16470       1
   16416   16419   16428   16446       1   16416   16419   16428   16449       1
   16416   16422  -16434   16449       1   16416   16422   16437   16458       1
   16416   16425  -16440   16458       1   16416   16425   16440   16461       1
   16605   16584   16602   16611       1   16605   16614  -16620   16611       1
   16602   16584   16605   16614       1   16602   16611  -16620   16614       1
   16584   16602   16611   16620       1   16584   16605  -16614   16620       1
   16581   16602   16584   16605       1   16581   16602   16611   16620       1
   16569   16548   16566   16581       1   16569   16584  -16602   16581       1
   16569   16584   16602   16611       1   16569   16584   16605   16614       1
   16566   16548   16569   16584       1   16566   16581  -16602   16584       1
   16566   16581   16602   16611       1   16557   16536   16554   16572       1
   16557   16578  -16590   16572       1   16554   16536   16557   16578       1
   16554   16572  -16590   16578       1   16548   16566   16581   16602       1
   16548   16569  -16584   16602       1   16548   16569   16584   16605       1
   16545   16530   16542   16557       1   16545   16566   16548   16569       1
   16545   16566   16581   16602       1   16542   16530   16545   16566       1
   16542   16557   16536   16554       1   16542   16557   16578   16590       1
   16536   16554   16572   16590       1   16536   16557  -16578   16590       1
   16533   16524   16527   16536       1   16533   16524   16530   16542       1
   16533   16524   16530   16545       1   16533   16548  -16566   16545       1
   16533   16548   16566   16581       1   16533   16548   16569   16584       1
   16530   16524   16527   16536       1   16530   16524   16533   16548       1
   16530   16542  -16557   16536       1   16530   16542   16557   16578       1
   16530   16545  -16566   16548       1   16530   16545   16566   16581       1
   16527   16524   16530   16542       1   16527   16524   16530   16545       1
   16527   16524   16533   16548       1   16527   16536   16554   16572       1
   16527   16536  -16557   16542       1   16527   16536   16557   16578       1
   16524   16527   16536   16554       1   16524   16527   16536   16557       1
   16524   16530  -16542   16557       1   16524   16530   16545   16566       1
   16524   16533  -16548   16566       1   16524   16533   16548   16569       1
   16713   16692   16710   16719       1   16713   16722  -16728   16719       1
   16710   16692   16713   16722       1   16710   16719  -16728   16722       1
   16692   16710   16719   16728       1   16692   16713  -16722   16728       1
   16689   16710   16692   16713       1   16689   16710   16719   16728       1
   16677   16656   16674   16689       1   16677   16692  -16710   16689       1
   16677   16692   16710   16719       1   16677   16692   16713   16722       1
   16674   16656   16677   16692       1   16674   16689  -16710   16692       1
   16674   16689   16710   16719       1   16665   16644   16662   16680       1
   16665   16686  -16698   16680       1   16662   16644   16665   16686       1
   16662   16680  -16698   16686       1   16656   16674   16689   16710       1
   16656   16677  -16692   16710       1   16656   16677   16692   16713       1
   16653   16638   16650   16665       1   16653   16674   16656   16677       1
   16653   16674   16689   16710       1   16650   16638   16653   16674       1
   16650   16665   16644   16662       1   16650   16665   16686   16698       1
   16644   16662   16680   16698       1   16644   16665  -16686   16698       1
   16641   16632   16635   16644       1   16641   16632   16638   16650       1
   16641   16632   16638   16653       1   16641   16656  -16674   16653       1
   16641   16656   16674   16689       1   16641   16656   16677   16692       1
   16638   16632   16635   16644       1   16638   16632   16641   16656       1
   16638   16650  -16665   16644       1   16638   16650   16665   16686       1
   16638   16653  -16674   16656       1   16638   16653   16674   16689       1
   16635   16632   16638   16650       1   16635   16632   16638   16653       1
   16635   16632   16641   16656       1   16635   16644   16662   16680       1
   16635   16644  -16665   16650       1   16635   16644   16665   16686       1
   16632   16635   16644   16662       1   16632   16635   16644   16665       1
   16632   16638  -16650   16665       1   16632   16638   16653   16674       1
   16632   16641  -16656   16674       1   16632   16641   16656   16677       1
   16821   16800   16818   16827       1   16821   16830  -16836   16827       1
   16818   16800   16821   16830       1   16818   16827  -16836   16830       1
   16800   16818   16827   16836       1   16800   16821  -16830   16836       1
   16797   16818   16800   16821       1   16797   16818   16827   16836       1
   16785   16764   16782   16797       1   16785   16800  -16818   16797       1
   16785   16800   16818   16827       1   16785   16800   16821   16830       1
   16782   16764   16785   16800       1   16782   16797  -16818   16800       1
   16782   16797   16818   16827       1   16773   16752   16770   16788       1
   16773   16794  -16806   16788       1   16770   16752   16773   16794       1
   16770   16788  -16806   16794       1   16764   16782   16797   16818       1
   16764   16785  -16800   16818       1   16764   16785   16800   16821       1
   16761   16746   16758   16773       1   16761   16782   16764   16785       1
   16761   16782   16797   16818       1   16758   16746   16761   16782       1
   16758   16773   16752   16770       1   16758   16773   16794   16806       1
   16752   16770   16788   16806       1   16752   16773  -16794   16806       1
   16749   16740   16743   16752       1   16749   16740   16746   16758       1
   16749   16740   16746   16761       1   16749   16764  -16782   16761       1
   16749   16764   16782   16797       1   16749   16764   16785   16800       1
   16746   16740   16743   16752       1   16746   16740   16749   16764       1
   16746   16758  -16773   16752       1   16746   16758   16773   16794       1
   16746   16761  -16782   16764       1   16746   16761   16782   16797       1
   16743   16740   16746   16758       1   16743   16740   16746   16761       1
   16743   16740   16749   16764       1   16743   16752   16770   16788       1
   16743   16752  -16773   16758       1   16743   16752   16773   16794       1
   16740   16743   16752   16770       1   16740   16743   16752   16773       1
   16740   16746  -16758   16773       1   16740   16746   16761   16782       1
   16740   16749  -16764   16782       1   16740   16749   16764   16785       1
   16929   16908   16926   16935       1   16929   16938  -16944   16935       1
   16926   16908   16929   16938       1   16926   16935  -16944   16938       1
   16908   16926   16935   16944       1   16908   16929  -16938   16944       1
   16905   16926   16908   16929       1   16905   16926   16935   16944       1
   16893   16872   16890   16905       1   16893   16908  -16926   16905       1
   16893   16908   16926   16935       1   16893   16908   16929   16938       1
   16890   16872   16893   16908       1   16890   16905  -16926   16908       1
   16890   16905   16926   16935       1   16881   16860   16878   16896       1
   16881   16902  -16914   16896       1   16878   16860   16881   16902       1
   16878   16896  -16914   16902       1   16872   16890   16905   16926       1
   16872   16893  -16908   16926       1   16872   16893   16908   16929       1
   16869   16854   16866   16881       1   16869   16890   16872   16893       1
   16869   16890   16905   16926       1   16866   16854   16869   16890       1
   16866   16881   16860   16878       1   16866   16881   16902   16914       1
   16860   16878   16896   16914       1   16860   16881  -16902   16914       1
   16857   16848   16851   16860       1   16857   16848   16854   16866       1
   16857   16848   16854   16869       1   16857   16872  -16890   16869       1
   16857   16872   16890   16905       1   16857   16872   16893   16908       1
   16854   16848   16851   16860       1   16854   16848   16857   16872       1
   16854   16866  -16881   16860       1   16854   16866   16881   16902       1
   16854   16869  -16890   16872       1   16854   16869   16890   16905       1
   16851   16848   16854   16866       1   16851   16848   16854   16869       1
   16851   16848   16857   16872       1   16851   16860   16878   16896       1
   16851   16860  -16881   16866       1   16851   16860   16881   16902       1
   16848   16851   16860   16878       1   16848   16851   16860   16881       1
   16848   16854  -16866   16881       1   16848   16854   16869   16890       1
   16848   16857  -16872   16890       1   16848   16857   16872   16893       1
   17037   17016   17034   17043       1   17037   17046  -17052   17043       1
   17034   17016   17037   17046       1   17034   17043  -17052   17046       1
   17016   17034   17043   17052       1   17016   17037  -17046   17052       1
   17013   17034   17016   17037       1   17013   17034   17043   17052       1
   17001   16980   16998   17013       1   17001   17016  -17034   17013       1
   17001   17016   17034   17043       1   17001   17016   17037   17046       1
   16998   16980   17001   17016       1   16998   17013  -17034   17016       1
   16998   17013   17034   17043       1   16989   16968   16986   17004       1
   16989   17010  -17022   17004       1   16986   16968   16989   17010       1
   16986   17004  -17022   17010       1   16980   16998   17013   17034       1
   16980   17001  -17016   17034       1   16980   17001   17016   17037       1
   16977   16962   16974   16989       1   16977   16998   16980   17001       1
   16977   16998   17013   17034       1   16974   16962   16977   16998       1
   16974   16989   16968   16986       1   16974   16989   17010   17022       1
   16968   16986   17004   17022       1   16968   16989  -17010   17022       1
   16965   16956   16959   16968       1   16965   16956   16962   16974       1
   16965   16956   16962   16977       1   16965   16980  -16998   16977       1
   16965   16980   16998   17013       1   16965   16980   17001   17016       1
   16962   16956   16959   16968       1   16962   16956   16965   16980       1
   16962   16974  -16989   16968       1   16962   16974   16989   17010       1
   16962   16977  -16998   16980       1   16962   16977   16998   17013       1
   16959   16956   16962   16974       1   16959   16956   16962   16977       1
   16959   16956   16965   16980       1   16959   16968   16986   17004       1
   16959   16968  -16989   16974       1   16959   16968   16989   17010       1
   16956   16959   16968   16986       1   16956   16959   16968   16989       1
   16956   16962  -16974   16989       1   16956   16962   16977   16998       1
   16956   16965  -16980   16998       1   16956   16965   16980   17001       1
   17145   17124   17142   17151       1   17145   17154  -17160   17151       1
   17142   17124   17145   17154       1   17142   17151  -17160   17154       1
   17124   17142   17151   17160       1   17124   17145  -17154   17160       1
   17121   17142   17124   17145       1   17121   17142   17151   17160       1
   17109   17088   17106   17121       1   17109   17124  -17142   17121       1
   17109   17124   17142   17151       1   17109   17124   17145   17154       1
   17106   17088   17109   17124       1   17106   17121  -17142   17124       1
   17106   17121   17142   17151       1   17097   17076   17094   17112       1
   17097   17118  -17130   17112       1   17094   17076   17097   17118       1
   17094   17112  -17130   17118       1   17088   17106   17121   17142       1
   17088   17109  -17124   17142       1   17088   17109   17124   17145       1
   17085   17070   17082   17097       1   17085   17106   17088   17109       1
   17085   17106   17121   17142       1   17082   17070   17085   17106       1
   17082   17097   17076   17094       1   17082   17097   17118   17130       1
   17076   17094   17112   17130       1   17076   17097  -17118   17130       1
   17073   17064   17067   17076       1   17073   17064   17070   17082       1
   17073   17064   17070   17085       1   17073   17088  -17106   17085       1
   17073   17088   17106   17121       1   17073   17088   17109   17124       1
   17070   17064   17067   17076       1   17070   17064   17073   17088       1
   17070   17082  -17097   17076       1   17070   17082   17097   17118       1
   17070   17085  -17106   17088       1   17070   17085   17106   17121       1
   17067   17064   17070   17082       1   17067   17064   17070   17085       1
   17067   17064   17073   17088       1   17067   17076   17094   17112       1
   17067   17076  -17097   17082       1   17067   17076   17097   17118       1
   17064   17067   17076   17094       1   17064   17067   17076   17097       1
   17064   17070  -17082   17097       1   17064   17070   17085   17106       1
   17064   17073  -17088   17106       1   17064   17073   17088   17109       1
   17253   17232   17250   17259       1   17253   17262  -17268   17259       1
   17250   17232   17253   17262       1   17250   17259  -17268   17262       1
   17232   17250   17259   17268       1   17232   17253  -17262   17268       1
   17229   17250   17232   17253       1   17229   17250   17259   17268       1
   17217   17196   17214   17229       1   17217   17232  -17250   17229       1
   17217   17232   17250   17259       1   17217   17232   17253   17262       1
   17214   17196   17217   17232       1   17214   17229  -17250   17232       1
   17214   17229   17250   17259       1   17205   17184   17202   17220       1
   17205   17226  -17238   17220       1   17202   17184   17205   17226       1
   17202   17220  -17238   17226       1   17196   17214   17229   17250       1
   17196   17217  -17232   17250       1   17196   17217   17232   17253       1
   17193   17178   17190   17205       1   17193   17214   17196   17217       1
   17193   17214   17229   17250       1   17190   17178   17193   17214       1
   17190   17205   17184   17202       1   17190   17205   17226   17238       1
   17184   17202   17220   17238       1   17184   17205  -17226   17238       1
   17181   17172   17175   17184       1   17181   17172   17178   17190       1
   17181   17172   17178   17193       1   17181   17196  -17214   17193       1
   17181   17196   17214   17229       1   17181   17196   17217   17232       1
   17178   17172   17175   17184       1   17178   17172   17181   17196       1
   17178   17190  -17205   17184       1   17178   17190   17205   17226       1
   17178   17193  -17214   17196       1   17178   17193   17214   17229       1
   17175   17172   17178   17190       1   17175   17172   17178   17193       1
   17175   17172   17181   17196       1   17175   17184   17202   17220       1
   17175   17184  -17205   17190       1   17175   17184   17205   17226       1
   17172   17175   17184   17202       1   17172   17175   17184   17205       1
   17172   17178  -17190   17205       1   17172   17178   17193   17214       1
   17172   17181  -17196   17214       1   17172   17181   17196   17217       1
   17361   17340   17358   17367       1   17361   17370  -17376   17367       1
   17358   17340   17361   17370       1   17358   17367  -17376   17370       1
   17340   17358   17367   17376       1   17340   17361  -17370   17376       1
   17337   17358   17340   17361       1   17337   17358   17367   17376       1
   17325   17304   17322   17337       1   17325   17340  -17358   17337       1
   17325   17340   17358   17367       1   17325   17340   17361   17370       1
   17322   17304   17325   17340       1   17322   17337  -17358   17340       1
   17322   17337   17358   17367       1   17313   17292   17310   17328       1
   17313   17334  -17346   17328       1   17310   17292   17313   17334       1
   17310   17328  -17346   17334       1   17304   17322   17337   17358       1
   17304   17325  -17340   17358       1   17304   17325   17340   17361       1
   17301   17286   17298   17313       1   17301   17322   17304   17325       1
   17301   17322   17337   17358       1   17298   17286   17301   17322       1
   17298   17313   17292   17310       1   17298   17313   17334   17346       1
   17292   17310   17328   17346       1   17292   17313  -17334   17346       1
   17289   17280   17283   17292       1   17289   17280   17286   17298       1
   17289   17280   17286   17301       1   17289   17304  -17322   17301       1
   17289   17304   17322   17337       1   17289   17304   17325   17340       1
   17286   17280   17283   17292       1   17286   17280   17289   17304       1
   17286   17298  -17313   17292       1   17286   17298   17313   17334       1
   17286   17301  -17322   17304       1   17286   17301   17322   17337       1
   17283   17280   17286   17298       1   17283   17280   17286   17301       1
   17283   17280   17289   17304       1   17283   17292   17310   17328       1
   17283   17292  -17313   17298       1   17283   17292   17313   17334       1
   17280   17283   17292   17310       1   17280   17283   17292   17313       1
   17280   17286  -17298   17313       1   17280   17286   17301   17322       1
   17280   17289  -17304   17322       1   17280   17289   17304   17325       1
   17469   17448   17466   17475       1   17469   17478  -17484   17475       1
   17466   17448   17469   17478       1   17466   17475  -17484   17478       1
   17448   17466   17475   17484       1   17448   17469  -17478   17484       1
   17445   17466   17448   17469       1   17445   17466   17475   17484       1
   17433   17412   17430   17445       1   17433   17448  -17466   17445       1
   17433   17448   17466   17475       1   17433   17448   17469   17478       1
   17430   17412   17433   17448       1   17430   17445  -17466   17448       1
   17430   17445   17466   17475       1   17421   17400   17418   17436       1
   17421   17442  -17454   17436       1   17418   17400   17421   17442       1
   17418   17436  -17454   17442       1   17412   17430   17445   17466       1
   17412   17433  -17448   17466       1   17412   17433   17448   17469       1
   17409   17394   17406   17421       1   17409   17430   17412   17433       1
   17409   17430   17445   17466       1   17406   17394   17409   17430       1
   17406   17421   17400   17418       1   17406   17421   17442   17454       1
   17400   17418   17436   17454       1   17400   17421  -17442   17454       1
   17397   17388   17391   17400       1   17397   17388   17394   17406       1
   17397   17388   17394   17409       1   17397   17412  -17430   17409       1
   17397   17412   17430   17445       1   17397   17412   17433   17448       1
   17394   17388   17391   17400       1   17394   17388   17397   17412       1
   17394   17406  -17421   17400       1   17394   17406   17421   17442       1
   17394   17409  -17430   17412       1   17394   17409   17430   17445       1
   17391   17388   17394   17406       1   17391   17388   17394   17409       1
   17391   17388   17397   17412       1   17391   17400   17418   17436       1
   17391   17400  -17421   17406       1   17391   17400   17421   17442       1
   17388   17391   17400   17418       1   17388   17391   17400   17421       1
   17388   17394  -17406   17421       1   17388   17394   17409   17430       1
   17388   17397  -17412   17430       1   17388   17397   17412   17433       1
   17577   17556   17574   17583       1   17577   17586  -17592   17583       1
   17574   17556   17577   17586       1   17574   17583  -17592   17586       1
   17556   17574   17583   17592       1   17556   17577  -17586   17592       1
   17553   17574   17556   17577       1   17553   17574   17583   17592       1
   17541   17520   17538   17553       1   17541   17556  -17574   17553       1
   17541   17556   17574   17583       1   17541   17556   17577   17586       1
   17538   17520   17541   17556       1   17538   17553  -17574   17556       1
   17538   17553   17574   17583       1   17529   17508   17526   17544       1
   17529   17550  -17562   17544       1   17526   17508   17529   17550       1
   17526   17544  -17562   17550       1   17520   17538   17553   17574       1
   17520   17541  -17556   17574       1   17520   17541   17556   17577       1
   17517   17502   17514   17529       1   17517   17538   17520   17541       1
   17517   17538   17553   17574       1   17514   17502   17517   17538       1
   17514   17529   17508   17526       1   17514   17529   17550   17562       1
   17508   17526   17544   17562       1   17508   17529  -17550   17562       1
   17505   17496   17499   17508       1   17505   17496   17502   17514       1
   17505   17496   17502   17517       1   17505   17520  -17538   17517       1
   17505   17520   17538   17553       1   17505   17520   17541   17556       1
   17502   17496   17499   17508       1   17502   17496   17505   17520       1
   17502   17514  -17529   17508       1   17502   17514   17529   17550       1
   17502   17517  -17538   17520       1   17502   17517   17538   17553       1
   17499   17496   17502   17514       1   17499   17496   17502   17517       1
   17499   17496   17505   17520       1   17499   17508   17526   17544       1
   17499   17508  -17529   17514       1   17499   17508   17529   17550       1
   17496   17499   17508   17526       1   17496   17499   17508   17529       1
   17496   17502  -17514   17529       1   17496   17502   17517   17538       1
   17496   17505  -17520   17538       1   17496   17505   17520   17541       1
   17685   17664   17682   17691       1   17685   17694  -17700   17691       1
   17682   17664   17685   17694       1   17682   17691  -17700   17694       1
   17664   17682   17691   17700       1   17664   17685  -17694   17700       1
   17661   17682   17664   17685       1   17661   17682   17691   17700       1
   17649   17628   17646   17661       1   17649   17664  -17682   17661       1
   17649   17664   17682   17691       1   17649   17664   17685   17694       1
   17646   17628   17649   17664       1   17646   17661  -17682   17664       1
   17646   17661   17682   17691       1   17637   17616   17634   17652       1
   17637   17658  -17670   17652       1   17634   17616   17637   17658       1
   17634   17652  -17670   17658       1   17628   17646   17661   17682       1
   17628   17649  -17664   17682       1   17628   17649   17664   17685       1
   17625   17610   17622   17637       1   17625   17646   17628   17649       1
   17625   17646   17661   17682       1   17622   17610   17625   17646       1
   17622   17637   17616   17634       1   17622   17637   17658   17670       1
   17616   17634   17652   17670       1   17616   17637  -17658   17670       1
   17613   17604   17607   17616       1   17613   17604   17610   17622       1
   17613   17604   17610   17625       1   17613   17628  -17646   17625       1
   17613   17628   17646   17661       1   17613   17628   17649   17664       1
   17610   17604   17607   17616       1   17610   17604   17613   17628       1
   17610   17622  -17637   17616       1   17610   17622   17637   17658       1
   17610   17625  -17646   17628       1   17610   17625   17646   17661       1
   17607   17604   17610   17622       1   17607   17604   17610   17625       1
   17607   17604   17613   17628       1   17607   17616   17634   17652       1
   17607   17616  -17637   17622       1   17607   17616   17637   17658       1
   17604   17607   17616   17634       1   17604   17607   17616   17637       1
   17604   17610  -17622   17637       1   17604   17610   17625   17646       1
   17604   17613  -17628   17646       1   17604   17613   17628   17649       1
   17793   17772   17790   17799       1   17793   17802  -17808   17799       1
   17790   17772   17793   17802       1   17790   17799  -17808   17802       1
   17772   17790   17799   17808       1   17772   17793  -17802   17808       1
   17769   17790   17772   17793       1   17769   17790   17799   17808       1
   17757   17736   17754   17769       1   17757   17772  -17790   17769       1
   17757   17772   17790   17799       1   17757   17772   17793   17802       1
   17754   17736   17757   17772       1   17754   17769  -17790   17772       1
   17754   17769   17790   17799       1   17745   17724   17742   17760       1
   17745   17766  -17778   17760       1   17742   17724   17745   17766       1
   17742   17760  -17778   17766       1   17736   17754   17769   17790       1
   17736   17757  -17772   17790       1   17736   17757   17772   17793       1
   17733   17718   17730   17745       1   17733   17754   17736   17757       1
   17733   17754   17769   17790       1   17730   17718   17733   17754       1
   17730   17745   17724   17742       1   17730   17745   17766   17778       1
   17724   17742   17760   17778       1   17724   17745  -17766   17778       1
   17721   17712   17715   17724       1   17721   17712   17718   17730       1
   17721   17712   17718   17733       1   17721   17736  -17754   17733       1
   17721   17736   17754   17769       1   17721   17736   17757   17772       1
   17718   17712   17715   17724       1   17718   17712   17721   17736       1
   17718   17730  -17745   17724       1   17718   17730   17745   17766       1
   17718   17733  -17754   17736       1   17718   17733   17754   17769       1
   17715   17712   17718   17730       1   17715   17712   17718   17733       1
   17715   17712   17721   17736       1   17715   17724   17742   17760       1
   17715   17724  -17745   17730       1   17715   17724   17745   17766       1
   17712   17715   17724   17742       1   17712   17715   17724   17745       1
   17712   17718  -17730   17745       1   17712   17718   17733   17754       1
   17712   17721  -17736   17754       1   17712   17721   17736   17757       1
   17901   17880   17898   17907       1   17901   17910  -17916   17907       1
   17898   17880   17901   17910       1   17898   17907  -17916   17910       1
   17880   17898   17907   17916       1   17880   17901  -17910   17916       1
   17877   17898   17880   17901       1   17877   17898   17907   17916       1
   17865   17844   17862   17877       1   17865   17880  -17898   17877       1
   17865   17880   17898   17907       1   17865   17880   17901   17910       1
   17862   17844   17865   17880       1   17862   17877  -17898   17880       1
   17862   17877   17898   17907       1   17853   17832   17850   17868       1
   17853   17874  -17886   17868       1   17850   17832   17853   17874       1
   17850   17868  -17886   17874       1   17844   17862   17877   17898       1
   17844   17865  -17880   17898       1   17844   17865   17880   17901       1
   17841   17826   17838   17853       1   17841   17862   17844   17865       1
   17841   17862   17877   17898       1   17838   17826   17841   17862       1
   17838   17853   17832   17850       1   17838   17853   17874   17886       1
   17832   17850   17868   17886       1   17832   17853  -17874   17886       1
   17829   17820   17823   17832       1   17829   17820   17826   17838       1
   17829   17820   17826   17841       1   17829   17844  -17862   17841       1
   17829   17844   17862   17877       1   17829   17844   17865   17880       1
   17826   17820   17823   17832       1   17826   17820   17829   17844       1
   17826   17838  -17853   17832       1   17826   17838   17853   17874       1
   17826   17841  -17862   17844       1   17826   17841   17862   17877       1
   17823   17820   17826   17838       1   17823   17820   17826   17841       1
   17823   17820   17829   17844       1   17823   17832   17850   17868       1
   17823   17832  -17853   17838       1   17823   17832   17853   17874       1
   17820   17823   17832   17850       1   17820   17823   17832   17853       1
   17820   17826  -17838   17853       1   17820   17826   17841   17862       1
   17820   17829  -17844   17862       1   17820   17829   17844   17865       1
   18009   17988   18006   18015       1   18009   18018  -18024   18015       1
   18006   17988   18009   18018       1   18006   18015  -18024   18018       1
   17988   18006   18015   18024       1   17988   18009  -18018   18024       1
   17985   18006   17988   18009       1   17985   18006   18015   18024       1
   17973   17952   17970   17985       1   17973   17988  -18006   17985       1
   17973   17988   18006   18015       1   17973   17988   18009   18018       1
   17970   17952   17973   17988       1   17970   17985  -18006   17988       1
   17970   17985   18006   18015       1   17961   17940   17958   17976       1
   17961   17982  -17994   17976       1   17958   17940   17961   17982       1
   17958   17976  -17994   17982       1   17952   17970   17985   18006       1
   17952   17973  -17988   18006       1   17952   17973   17988   18009       1
   17949   17934   17946   17961       1   17949   17970   17952   17973       1
   17949   17970   17985   18006       1   17946   17934   17949   17970       1
   17946   17961   17940   17958       1   17946   17961   17982   17994       1
   17940   17958   17976   17994       1   17940   17961  -17982   17994       1
   17937   17928   17931   17940       1   17937   17928   17934   17946       1
   17937   17928   17934   17949       1   17937   17952  -17970   17949       1
   17937   17952   17970   17985       1   17937   17952   17973   17988       1
   17934   17928   17931   17940       1   17934   17928   17937   17952       1
   17934   17946  -17961   17940       1   17934   17946   17961   17982       1
   17934   17949  -17970   17952       1   17934   17949   17970   17985       1
   17931   17928   17934   17946       1   17931   17928   17934   17949       1
   17931   17928   17937   17952       1   17931   17940   17958   17976       1
   17931   17940  -17961   17946       1   17931   17940   17961   17982       1
   17928   17931   17940   17958       1   17928   17931   17940   17961       1
   17928   17934  -17946   17961       1   17928   17934   17949   17970       1
   17928   17937  -17952   17970       1   17928   17937   17952   17973       1
   18117   18096   18114   18123       1   18117   18126  -18132   18123       1
   18114   18096   18117   18126       1   18114   18123  -18132   18126       1
   18096   18114   18123   18132       1   18096   18117  -18126   18132       1
   18093   18114   18096   18117       1   18093   18114   18123   18132       1
   18081   18060   18078   18093       1   18081   18096  -18114   18093       1
   18081   18096   18114   18123       1   18081   18096   18117   18126       1
   18078   18060   18081   18096       1   18078   18093  -18114   18096       1
   18078   18093   18114   18123       1   18069   18048   18066   18084       1
   18069   18090  -18102   18084       1   18066   18048   18069   18090       1
   18066   18084  -18102   18090       1   18060   18078   18093   18114       1
   18060   18081  -18096   18114       1   18060   18081   18096   18117       1
   18057   18042   18054   18069       1   18057   18078   18060   18081       1
   18057   18078   18093   18114       1   18054   18042   18057   18078       1
   18054   18069   18048   18066       1   18054   18069   18090   18102       1
   18048   18066   18084   18102       1   18048   18069  -18090   18102       1
   18045   18036   18039   18048       1   18045   18036   18042   18054       1
   18045   18036   18042   18057       1   18045   18060  -18078   18057       1
   18045   18060   18078   18093       1   18045   18060   18081   18096       1
   18042   18036   18039   18048       1   18042   18036   18045   18060       1
   18042   18054  -18069   18048       1   18042   18054   18069   18090       1
   18042   18057  -18078   18060       1   18042   18057   18078   18093       1
   18039   18036   18042   18054       1   18039   18036   18042   18057       1
   18039   18036   18045   18060       1   18039   18048   18066   18084       1
   18039   18048  -18069   18054       1   18039   18048   18069   18090       1
   18036   18039   18048   18066       1   18036   18039   18048   18069       1
   18036   18042  -18054   18069       1   18036   18042   18057   18078       1
   18036   18045  -18060   18078       1   18036   18045   18060   18081       1
   18225   18204   18222   18231       1   18225   18234  -18240   18231       1
   18222   18204   18225   18234       1   18222   18231  -18240   18234       1
   18204   18222   18231   18240       1   18204   18225  -18234   18240       1
   18201   18222   18204   18225       1   18201   18222   18231   18240       1
   18189   18168   18186   18201       1   18189   18204  -18222   18201       1
   18189   18204   18222   18231       1   18189   18204   18225   18234       1
   18186   18168   18189   18204       1   18186   18201  -18222   18204       1
   18186   18201   18222   18231       1   18177   18156   18174   18192       1
   18177   18198  -18210   18192       1   18174   18156   18177   18198       1
   18174   18192  -18210   18198       1   18168   18186   18201   18222       1
   18168   18189  -18204   18222       1   18168   18189   18204   18225       1
   18165   18150   18162   18177       1   18165   18186   18168   18189       1
   18165   18186   18201   18222       1   18162   18150   18165   18186       1
   18162   18177   18156   18174       1   18162   18177   18198   18210       1
   18156   18174   18192   18210       1   18156   18177  -18198   18210       1
   18153   18144   18147   18156       1   18153   18144   18150   18162       1
   18153   18144   18150   18165       1   18153   18168  -18186   18165       1
   18153   18168   18186   18201       1   18153   18168   18189   18204       1
   18150   18144   18147   18156       1   18150   18144   18153   18168       1
   18150   18162  -18177   18156       1   18150   18162   18177   18198       1
   18150   18165  -18186   18168       1   18150   18165   18186   18201       1
   18147   18144   18150   18162       1   18147   18144   18150   18165       1
   18147   18144   18153   18168       1   18147   18156   18174   18192       1
   18147   18156  -18177   18162       1   18147   18156   18177   18198       1
   18144   18147   18156   18174       1   18144   18147   18156   18177       1
   18144   18150  -18162   18177       1   18144   18150   18165   18186       1
   18144   18153  -18168   18186       1   18144   18153   18168   18189       1
   18333   18312   18330   18339       1   18333   18342  -18348   18339       1
   18330   18312   18333   18342       1   18330   18339  -18348   18342       1
   18312   18330   18339   18348       1   18312   18333  -18342   18348       1
   18309   18330   18312   18333       1   18309   18330   18339   18348       1
   18297   18276   18294   18309       1   18297   18312  -18330   18309       1
   18297   18312   18330   18339       1   18297   18312   18333   18342       1
   18294   18276   18297   18312       1   18294   18309  -18330   18312       1
   18294   18309   18330   18339       1   18285   18264   18282   18300       1
   18285   18306  -18318   18300       1   18282   18264   18285   18306       1
   18282   18300  -18318   18306       1   18276   18294   18309   18330       1
   18276   18297  -18312   18330       1   18276   18297   18312   18333       1
   18273   18258   18270   18285       1   18273   18294   18276   18297       1
   18273   18294   18309   18330       1   18270   18258   18273   18294       1
   18270   18285   18264   18282       1   18270   18285   18306   18318       1
   18264   18282   18300   18318       1   18264   18285  -18306   18318       1
   18261   18252   18255   18264       1   18261   18252   18258   18270       1
   18261   18252   18258   18273       1   18261   18276  -18294   18273       1
   18261   18276   18294   18309       1   18261   18276   18297   18312       1
   18258   18252   18255   18264       1   18258   18252   18261   18276       1
   18258   18270  -18285   18264       1   18258   18270   18285   18306       1
   18258   18273  -18294   18276       1   18258   18273   18294   18309       1
   18255   18252   18258   18270       1   18255   18252   18258   18273       1
   18255   18252   18261   18276       1   18255   18264   18282   18300       1
   18255   18264  -18285   18270       1   18255   18264   18285   18306       1
   18252   18255   18264   18282       1   18252   18255   18264   18285       1
   18252   18258  -18270   18285       1   18252   18258   18273   18294       1
   18252   18261  -18276   18294       1   18252   18261   18276   18297       1
   18441   18420   18438   18447       1   18441   18450  -18456   18447       1
   18438   18420   18441   18450       1   18438   18447  -18456   18450       1
   18420   18438   18447   18456       1   18420   18441  -18450   18456       1
   18417   18438   18420   18441       1   18417   18438   18447   18456       1
   18405   18384   18402   18417       1   18405   18420  -18438   18417       1
   18405   18420   18438   18447       1   18405   18420   18441   18450       1
   18402   18384   18405   18420       1   18402   18417  -18438   18420       1
   18402   18417   18438   18447       1   18393   18372   18390   18408       1
   18393   18414  -18426   18408       1   18390   18372   18393   18414       1
   18390   18408  -18426   18414       1   18384   18402   18417   18438       1
   18384   18405  -18420   18438       1   18384   18405   18420   18441       1
   18381   18366   18378   18393       1   18381   18402   18384   18405       1
   18381   18402   18417   18438       1   18378   18366   18381   18402       1
   18378   18393   18372   18390       1   18378   18393   18414   18426       1
   18372   18390   18408   18426       1   18372   18393  -18414   18426       1
   18369   18360   18363   18372       1   18369   18360   18366   18378       1
   18369   18360   18366   18381       1   18369   18384  -18402   18381       1
   18369   18384   18402   18417       1   18369   18384   18405   18420       1
   18366   18360   18363   18372       1   18366   18360   18369   18384       1
   18366   18378  -18393   18372       1   18366   18378   18393   18414       1
   18366   18381  -18402   18384       1   18366   18381   18402   18417       1
   18363   18360   18366   18378       1   18363   18360   18366   18381       1
   18363   18360   18369   18384       1   18363   18372   18390   18408       1
   18363   18372  -18393   18378       1   18363   18372   18393   18414       1
   18360   18363   18372   18390       1   18360   18363   18372   18393       1
   18360   18366  -18378   18393       1   18360   18366   18381   18402       1
   18360   18369  -18384   18402       1   18360   18369   18384   18405       1
   18549   18528   18546   18555       1   18549   18558  -18564   18555       1
   18546   18528   18549   18558       1   18546   18555  -18564   18558       1
   18528   18546   18555   18564       1   18528   18549  -18558   18564       1
   18525   18546   18528   18549       1   18525   18546   18555   18564       1
   18513   18492   18510   18525       1   18513   18528  -18546   18525       1
   18513   18528   18546   18555       1   18513   18528   18549   18558       1
   18510   18492   18513   18528       1   18510   18525  -18546   18528       1
   18510   18525   18546   18555       1   18501   18480   18498   18516       1
   18501   18522  -18534   18516       1   18498   18480   18501   18522       1
   18498   18516  -18534   18522       1   18492   18510   18525   18546       1
   18492   18513  -18528   18546       1   18492   18513   18528   18549       1
   18489   18474   18486   18501       1   18489   18510   18492   18513       1
   18489   18510   18525   18546       1   18486   18474   18489   18510       1
   18486   18501   18480   18498       1   18486   18501   18522   18534       1
   18480   18498   18516   18534       1   18480   18501  -18522   18534       1
   18477   18468   18471   18480       1   18477   18468   18474   18486       1
   18477   18468   18474   18489       1   18477   18492  -18510   18489       1
   18477   18492   18510   18525       1   18477   18492   18513   18528       1
   18474   18468   18471   18480       1   18474   18468   18477   18492       1
   18474   18486  -18501   18480       1   18474   18486   18501   18522       1
   18474   18489  -18510   18492       1   18474   18489   18510   18525       1
   18471   18468   18474   18486       1   18471   18468   18474   18489       1
   18471   18468   18477   18492       1   18471   18480   18498   18516       1
   18471   18480  -18501   18486       1   18471   18480   18501   18522       1
   18468   18471   18480   18498       1   18468   18471   18480   18501       1
   18468   18474  -18486   18501       1   18468   18474   18489   18510       1
   18468   18477  -18492   18510       1   18468   18477   18492   18513       1
   18657   18636   18654   18663       1   18657   18666  -18672   18663       1
   18654   18636   18657   18666       1   18654   18663  -18672   18666       1
   18636   18654   18663   18672       1   18636   18657  -18666   18672       1
   18633   18654   18636   18657       1   18633   18654   18663   18672       1
   18621   18600   18618   18633       1   18621   18636  -18654   18633       1
   18621   18636   18654   18663       1   18621   18636   18657   18666       1
   18618   18600   18621   18636       1   18618   18633  -18654   18636       1
   18618   18633   18654   18663       1   18609   18588   18606   18624       1
   18609   18630  -18642   18624       1   18606   18588   18609   18630       1
   18606   18624  -18642   18630       1   18600   18618   18633   18654       1
   18600   18621  -18636   18654       1   18600   18621   18636   18657       1
   18597   18582   18594   18609       1   18597   18618   18600   18621       1
   18597   18618   18633   18654       1   18594   18582   18597   18618       1
   18594   18609   18588   18606       1   18594   18609   18630   18642       1
   18588   18606   18624   18642       1   18588   18609  -18630   18642       1
   18585   18576   18579   18588       1   18585   18576   18582   18594       1
   18585   18576   18582   18597       1   18585   18600  -18618   18597       1
   18585   18600   18618   18633       1   18585   18600   18621   18636       1
   18582   18576   18579   18588       1   18582   18576   18585   18600       1
   18582   18594  -18609   18588       1   18582   18594   18609   18630       1
   18582   18597  -18618   18600       1   18582   18597   18618   18633       1
   18579   18576   18582   18594       1   18579   18576   18582   18597       1
   18579   18576   18585   18600       1   18579   18588   18606   18624       1
   18579   18588  -18609   18594       1   18579   18588   18609   18630       1
   18576   18579   18588   18606       1   18576   18579   18588   18609       1
   18576   18582  -18594   18609       1   18576   18582   18597   18618       1
   18576   18585  -18600   18618       1   18576   18585   18600   18621       1
   18765   18744   18762   18771       1   18765   18774  -18780   18771       1
   18762   18744   18765   18774       1   18762   18771  -18780   18774       1
   18744   18762   18771   18780       1   18744   18765  -18774   18780       1
   18741   18762   18744   18765       1   18741   18762   18771   18780       1
   18729   18708   18726   18741       1   18729   18744  -18762   18741       1
   18729   18744   18762   18771       1   18729   18744   18765   18774       1
   18726   18708   18729   18744       1   18726   18741  -18762   18744       1
   18726   18741   18762   18771       1   18717   18696   18714   18732       1
   18717   18738  -18750   18732       1   18714   18696   18717   18738       1
   18714   18732  -18750   18738       1   18708   18726   18741   18762       1
   18708   18729  -18744   18762       1   18708   18729   18744   18765       1
   18705   18690   18702   18717       1   18705   18726   18708   18729       1
   18705   18726   18741   18762       1   18702   18690   18705   18726       1
   18702   18717   18696   18714       1   18702   18717   18738   18750       1
   18696   18714   18732   18750       1   18696   18717  -18738   18750       1
   18693   18684   18687   18696       1   18693   18684   18690   18702       1
   18693   18684   18690   18705       1   18693   18708  -18726   18705       1
   18693   18708   18726   18741       1   18693   18708   18729   18744       1
   18690   18684   18687   18696       1   18690   18684   18693   18708       1
   18690   18702  -18717   18696       1   18690   18702   18717   18738       1
   18690   18705  -18726   18708       1   18690   18705   18726   18741       1
   18687   18684   18690   18702       1   18687   18684   18690   18705       1
   18687   18684   18693   18708       1   18687   18696   18714   18732       1
   18687   18696  -18717   18702       1   18687   18696   18717   18738       1
   18684   18687   18696   18714       1   18684   18687   18696   18717       1
   18684   18690  -18702   18717       1   18684   18690   18705   18726       1
   18684   18693  -18708   18726       1   18684   18693   18708   18729       1
   18873   18852   18870   18879       1   18873   18882  -18888   18879       1
   18870   18852   18873   18882       1   18870   18879  -18888   18882       1
   18852   18870   18879   18888       1   18852   18873  -18882   18888       1
   18849   18870   18852   18873       1   18849   18870   18879   18888       1
   18837   18816   18834   18849       1   18837   18852  -18870   18849       1
   18837   18852   18870   18879       1   18837   18852   18873   18882       1
   18834   18816   18837   18852       1   18834   18849  -18870   18852       1
   18834   18849   18870   18879       1   18825   18804   18822   18840       1
   18825   18846  -18858   18840       1   18822   18804   18825   18846       1
   18822   18840  -18858   18846       1   18816   18834   18849   18870       1
   18816   18837  -18852   18870       1   18816   18837   18852   18873       1
   18813   18798   18810   18825       1   18813   18834   18816   18837       1
   18813   18834   18849   18870       1   18810   18798   18813   18834       1
   18810   18825   18804   18822       1   18810   18825   18846   18858       1
   18804   18822   18840   18858       1   18804   18825  -18846   18858       1
   18801   18792   18795   18804       1   18801   18792   18798   18810       1
   18801   18792   18798   18813       1   18801   18816  -18834   18813       1
   18801   18816   18834   18849       1   18801   18816   18837   18852       1
   18798   18792   18795   18804       1   18798   18792   18801   18816       1
   18798   18810  -18825   18804       1   18798   18810   18825   18846       1
   18798   18813  -18834   18816       1   18798   18813   18834   18849       1
   18795   18792   18798   18810       1   18795   18792   18798   18813       1
   18795   18792   18801   18816       1   18795   18804   18822   18840       1
   18795   18804  -18825   18810       1   18795   18804   18825   18846       1
   18792   18795   18804   18822       1   18792   18795   18804   18825       1
   18792   18798  -18810   18825       1   18792   18798   18813   18834       1
   18792   18801  -18816   18834       1   18792   18801   18816   18837       1
   18981   18960   18978   18987       1   18981   18990  -18996   18987       1
   18978   18960   18981   18990       1   18978   18987  -18996   18990       1
   18960   18978   18987   18996       1   18960   18981  -18990   18996       1
   18957   18978   18960   18981       1   18957   18978   18987   18996       1
   18945   18924   18942   18957       1   18945   18960  -18978   18957       1
   18945   18960   18978   18987       1   18945   18960   18981   18990       1
   18942   18924   18945   18960       1   18942   18957  -18978   18960       1
   18942   18957   18978   18987       1   18933   18912   18930   18948       1
   18933   18954  -18966   18948       1   18930   18912   18933   18954       1
   18930   18948  -18966   18954       1   18924   18942   18957   18978       1
   18924   18945  -18960   18978       1   18924   18945   18960   18981       1
   18921   18906   18918   18933       1   18921   18942   18924   18945       1
   18921   18942   18957   18978       1   18918   18906   18921   18942       1
   18918   18933   18912   18930       1   18918   18933   18954   18966       1
   18912   18930   18948   18966       1   18912   18933  -18954   18966       1
   18909   18900   18903   18912       1   18909   18900   18906   18918       1
   18909   18900   18906   18921       1   18909   18924  -18942   18921       1
   18909   18924   18942   18957       1   18909   18924   18945   18960       1
   18906   18900   18903   18912       1   18906   18900   18909   18924       1
   18906   18918  -18933   18912       1   18906   18918   18933   18954       1
   18906   18921  -18942   18924       1   18906   18921   18942   18957       1
   18903   18900   18906   18918       1   18903   18900   18906   18921       1
   18903   18900   18909   18924       1   18903   18912   18930   18948       1
   18903   18912  -18933   18918       1   18903   18912   18933   18954       1
   18900   18903   18912   18930       1   18900   18903   18912   18933       1
   18900   18906  -18918   18933       1   18900   18906   18921   18942       1
   18900   18909  -18924   18942       1   18900   18909   18924   18945       1
   19089   19068   19086   19095       1   19089   19098  -19104   19095       1
   19086   19068   19089   19098       1   19086   19095  -19104   19098       1
   19068   19086   19095   19104       1   19068   19089  -19098   19104       1
   19065   19086   19068   19089       1   19065   19086   19095   19104       1
   19053   19032   19050   19065       1   19053   19068  -19086   19065       1
   19053   19068   19086   19095       1   19053   19068   19089   19098       1
   19050   19032   19053   19068       1   19050   19065  -19086   19068       1
   19050   19065   19086   19095       1   19041   19020   19038   19056       1
   19041   19062  -19074   19056       1   19038   19020   19041   19062       1
   19038   19056  -19074   19062       1   19032   19050   19065   19086       1
   19032   19053  -19068   19086       1   19032   19053   19068   19089       1
   19029   19014   19026   19041       1   19029   19050   19032   19053       1
   19029   19050   19065   19086       1   19026   19014   19029   19050       1
   19026   19041   19020   19038       1   19026   19041   19062   19074       1
   19020   19038   19056   19074       1   19020   19041  -19062   19074       1
   19017   19008   19011   19020       1   19017   19008   19014   19026       1
   19017   19008   19014   19029       1   19017   19032  -19050   19029       1
   19017   19032   19050   19065       1   19017   19032   19053   19068       1
   19014   19008   19011   19020       1   19014   19008   19017   19032       1
   19014   19026  -19041   19020       1   19014   19026   19041   19062       1
   19014   19029  -19050   19032       1   19014   19029   19050   19065       1
   19011   19008   19014   19026       1   19011   19008   19014   19029       1
   19011   19008   19017   19032       1   19011   19020   19038   19056       1
   19011   19020  -19041   19026       1   19011   19020   19041   19062       1
   19008   19011   19020   19038       1   19008   19011   19020   19041       1
   19008   19014  -19026   19041       1   19008   19014   19029   19050       1
   19008   19017  -19032   19050       1   19008   19017   19032   19053       1
   19197   19176   19194   19203       1   19197   19206  -19212   19203       1
   19194   19176   19197   19206       1   19194   19203  -19212   19206       1
   19176   19194   19203   19212       1   19176   19197  -19206   19212       1
   19173   19194   19176   19197       1   19173   19194   19203   19212       1
   19161   19140   19158   19173       1   19161   19176  -19194   19173       1
   19161   19176   19194   19203       1   19161   19176   19197   19206       1
   19158   19140   19161   19176       1   19158   19173  -19194   19176       1
   19158   19173   19194   19203       1   19149   19128   19146   19164       1
   19149   19170  -19182   19164       1   19146   19128   19149   19170       1
   19146   19164  -19182   19170       1   19140   19158   19173   19194       1
   19140   19161  -19176   19194       1   19140   19161   19176   19197       1
   19137   19122   19134   19149       1   19137   19158   19140   19161       1
   19137   19158   19173   19194       1   19134   19122   19137   19158       1
   19134   19149   19128   19146       1   19134   19149   19170   19182       1
   19128   19146   19164   19182       1   19128   19149  -19170   19182       1
   19125   19116   19119   19128       1   19125   19116   19122   19134       1
   19125   19116   19122   19137       1   19125   19140  -19158   19137       1
   19125   19140   19158   19173       1   19125   19140   19161   19176       1
   19122   19116   19119   19128       1   19122   19116   19125   19140       1
   19122   19134  -19149   19128       1   19122   19134   19149   19170       1
   19122   19137  -19158   19140       1   19122   19137   19158   19173       1
   19119   19116   19122   19134       1   19119   19116   19122   19137       1
   19119   19116   19125   19140       1   19119   19128   19146   19164       1
   19119   19128  -19149   19134       1   19119   19128   19149   19170       1
   19116   19119   19128   19146       1   19116   19119   19128   19149       1
   19116   19122  -19134   19149       1   19116   19122   19137   19158       1
   19116   19125  -19140   19158       1   19116   19125   19140   19161       1
   19305   19284   19302   19311       1   19305   19314  -19320   19311       1
   19302   19284   19305   19314       1   19302   19311  -19320   19314       1
   19284   19302   19311   19320       1   19284   19305  -19314   19320       1
   19281   19302   19284   19305       1   19281   19302   19311   19320       1
   19269   19248   19266   19281       1   19269   19284  -19302   19281       1
   19269   19284   19302   19311       1   19269   19284   19305   19314       1
   19266   19248   19269   19284       1   19266   19281  -19302   19284       1
   19266   19281   19302   19311       1   19257   19236   19254   19272       1
   19257   19278  -19290   19272       1   19254   19236   19257   19278       1
   19254   19272  -19290   19278       1   19248   19266   19281   19302       1
   19248   19269  -19284   19302       1   19248   19269   19284   19305       1
   19245   19230   19242   19257       1   19245   19266   19248   19269       1
   19245   19266   19281   19302       1   19242   19230   19245   19266       1
   19242   19257   19236   19254       1   19242   19257   19278   19290       1
   19236   19254   19272   19290       1   19236   19257  -19278   19290       1
   19233   19224   19227   19236       1   19233   19224   19230   19242       1
   19233   19224   19230   19245       1   19233   19248  -19266   19245       1
   19233   19248   19266   19281       1   19233   19248   19269   19284       1
   19230   19224   19227   19236       1   19230   19224   19233   19248       1
   19230   19242  -19257   19236       1   19230   19242   19257   19278       1
   19230   19245  -19266   19248       1   19230   19245   19266   19281       1
   19227   19224   19230   19242       1   19227   19224   19230   19245       1
   19227   19224   19233   19248       1   19227   19236   19254   19272       1
   19227   19236  -19257   19242       1   19227   19236   19257   19278       1
   19224   19227   19236   19254       1   19224   19227   19236   19257       1
   19224   19230  -19242   19257       1   19224   19230   19245   19266       1
   19224   19233  -19248   19266       1   19224   19233   19248   19269       1
   19413   19392   19410   19419       1   19413   19422  -19428   19419       1
   19410   19392   19413   19422       1   19410   19419  -19428   19422       1
   19392   19410   19419   19428       1   19392   19413  -19422   19428       1
   19389   19410   19392   19413       1   19389   19410   19419   19428       1
   19377   19356   19374   19389       1   19377   19392  -19410   19389       1
   19377   19392   19410   19419       1   19377   19392   19413   19422       1
   19374   19356   19377   19392       1   19374   19389  -19410   19392       1
   19374   19389   19410   19419       1   19365   19344   19362   19380       1
   19365   19386  -19398   19380       1   19362   19344   19365   19386       1
   19362   19380  -19398   19386       1   19356   19374   19389   19410       1
   19356   19377  -19392   19410       1   19356   19377   19392   19413       1
   19353   19338   19350   19365       1   19353   19374   19356   19377       1
   19353   19374   19389   19410       1   19350   19338   19353   19374       1
   19350   19365   19344   19362       1   19350   19365   19386   19398       1
   19344   19362   19380   19398       1   19344   19365  -19386   19398       1
   19341   19332   19335   19344       1   19341   19332   19338   19350       1
   19341   19332   19338   19353       1   19341   19356  -19374   19353       1
   19341   19356   19374   19389       1   19341   19356   19377   19392       1
   19338   19332   19335   19344       1   19338   19332   19341   19356       1
   19338   19350  -19365   19344       1   19338   19350   19365   19386       1
   19338   19353  -19374   19356       1   19338   19353   19374   19389       1
   19335   19332   19338   19350       1   19335   19332   19338   19353       1
   19335   19332   19341   19356       1   19335   19344   19362   19380       1
   19335   19344  -19365   19350       1   19335   19344   19365   19386       1
   19332   19335   19344   19362       1   19332   19335   19344   19365       1
   19332   19338  -19350   19365       1   19332   19338   19353   19374       1
   19332   19341  -19356   19374       1   19332   19341   19356   19377       1
   19521   19500   19518   19527       1   19521   19530  -19536   19527       1
   19518   19500   19521   19530       1   19518   19527  -19536   19530       1
   19500   19518   19527   19536       1   19500   19521  -19530   19536       1
   19497   19518   19500   19521       1   19497   19518   19527   19536       1
   19485   19464   19482   19497       1   19485   19500  -19518   19497       1
   19485   19500   19518   19527       1   19485   19500   19521   19530       1
   19482   19464   19485   19500       1   19482   19497  -19518   19500       1
   19482   19497   19518   19527       1   19473   19452   19470   19488       1
   19473   19494  -19506   19488       1   19470   19452   19473   19494       1
   19470   19488  -19506   19494       1   19464   19482   19497   19518       1
   19464   19485  -19500   19518       1   19464   19485   19500   19521       1
   19461   19446   19458   19473       1   19461   19482   19464   19485       1
   19461   19482   19497   19518       1   19458   19446   19461   19482       1
   19458   19473   19452   19470       1   19458   19473   19494   19506       1
   19452   19470   19488   19506       1   19452   19473  -19494   19506       1
   19449   19440   19443   19452       1   19449   19440   19446   19458       1
   19449   19440   19446   19461       1   19449   19464  -19482   19461       1
   19449   19464   19482   19497       1   19449   19464   19485   19500       1
   19446   19440   19443   19452       1   19446   19440   19449   19464       1
   19446   19458  -19473   19452       1   19446   19458   19473   19494       1
   19446   19461  -19482   19464       1   19446   19461   19482   19497       1
   19443   19440   19446   19458       1   19443   19440   19446   19461       1
   19443   19440   19449   19464       1   19443   19452   19470   19488       1
   19443   19452  -19473   19458       1   19443   19452   19473   19494       1
   19440   19443   19452   19470       1   19440   19443   19452   19473       1
   19440   19446  -19458   19473       1   19440   19446   19461   19482       1
   19440   19449  -19464   19482       1   19440   19449   19464   19485       1
   19629   19608   19626   19635       1   19629   19638  -19644   19635       1
   19626   19608   19629   19638       1   19626   19635  -19644   19638       1
   19608   19626   19635   19644       1   19608   19629  -19638   19644       1
   19605   19626   19608   19629       1   19605   19626   19635   19644       1
   19593   19572   19590   19605       1   19593   19608  -19626   19605       1
   19593   19608   19626   19635       1   19593   19608   19629   19638       1
   19590   19572   19593   19608       1   19590   19605  -19626   19608       1
   19590   19605   19626   19635       1   19581   19560   19578   19596       1
   19581   19602  -19614   19596       1   19578   19560   19581   19602       1
   19578   19596  -19614   19602       1   19572   19590   19605   19626       1
   19572   19593  -19608   19626       1   19572   19593   19608   19629       1
   19569   19554   19566   19581       1   19569   19590   19572   19593       1
   19569   19590   19605   19626       1   19566   19554   19569   19590       1
   19566   19581   19560   19578       1   19566   19581   19602   19614       1
   19560   19578   19596   19614       1   19560   19581  -19602   19614       1
   19557   19548   19551   19560       1   19557   19548   19554   19566       1
   19557   19548   19554   19569       1   19557   19572  -19590   19569       1
   19557   19572   19590   19605       1   19557   19572   19593   19608       1
   19554   19548   19551   19560       1   19554   19548   19557   19572       1
   19554   19566  -19581   19560       1   19554   19566   19581   19602       1
   19554   19569  -19590   19572       1   19554   19569   19590   19605       1
   19551   19548   19554   19566       1   19551   19548   19554   19569       1
   19551   19548   19557   19572       1   19551   19560   19578   19596       1
   19551   19560  -19581   19566       1   19551   19560   19581   19602       1
   19548   19551   19560   19578       1   19548   19551   19560   19581       1
   19548   19554  -19566   19581       1   19548   19554   19569   19590       1
   19548   19557  -19572   19590       1   19548   19557   19572   19593       1
   19737   19716   19734   19743       1   19737   19746  -19752   19743       1
   19734   19716   19737   19746       1   19734   19743  -19752   19746       1
   19716   19734   19743   19752       1   19716   19737  -19746   19752       1
   19713   19734   19716   19737       1   19713   19734   19743   19752       1
   19701   19680   19698   19713       1   19701   19716  -19734   19713       1
   19701   19716   19734   19743       1   19701   19716   19737   19746       1
   19698   19680   19701   19716       1   19698   19713  -19734   19716       1
   19698   19713   19734   19743       1   19689   19668   19686   19704       1
   19689   19710  -19722   19704       1   19686   19668   19689   19710       1
   19686   19704  -19722   19710       1   19680   19698   19713   19734       1
   19680   19701  -19716   19734       1   19680   19701   19716   19737       1
   19677   19662   19674   19689       1   19677   19698   19680   19701       1
   19677   19698   19713   19734       1   19674   19662   19677   19698       1
   19674   19689   19668   19686       1   19674   19689   19710   19722       1
   19668   19686   19704   19722       1   19668   19689  -19710   19722       1
   19665   19656   19659   19668       1   19665   19656   19662   19674       1
   19665   19656   19662   19677       1   19665   19680  -19698   19677       1
   19665   19680   19698   19713       1   19665   19680   19701   19716       1
   19662   19656   19659   19668       1   19662   19656   19665   19680       1
   19662   19674  -19689   19668       1   19662   19674   19689   19710       1
   19662   19677  -19698   19680       1   19662   19677   19698   19713       1
   19659   19656   19662   19674       1   19659   19656   19662   19677       1
   19659   19656   19665   19680       1   19659   19668   19686   19704       1
   19659   19668  -19689   19674       1   19659   19668   19689   19710       1
   19656   19659   19668   19686       1   19656   19659   19668   19689       1
   19656   19662  -19674   19689       1   19656   19662   19677   19698       1
   19656   19665  -19680   19698       1   19656   19665   19680   19701       1
   19845   19824   19842   19851       1   19845   19854  -19860   19851       1
   19842   19824   19845   19854       1   19842   19851  -19860   19854       1
   19824   19842   19851   19860       1   19824   19845  -19854   19860       1
   19821   19842   19824   19845       1   19821   19842   19851   19860       1
   19809   19788   19806   19821       1   19809   19824  -19842   19821       1
   19809   19824   19842   19851       1   19809   19824   19845   19854       1
   19806   19788   19809   19824       1   19806   19821  -19842   19824       1
   19806   19821   19842   19851       1   19797   19776   19794   19812       1
   19797   19818  -19830   19812       1   19794   19776   19797   19818       1
   19794   19812  -19830   19818       1   19788   19806   19821   19842       1
   19788   19809  -19824   19842       1   19788   19809   19824   19845       1
   19785   19770   19782   19797       1   19785   19806   19788   19809       1
   19785   19806   19821   19842       1   19782   19770   19785   19806       1
   19782   19797   19776   19794       1   19782   19797   19818   19830       1
   19776   19794   19812   19830       1   19776   19797  -19818   19830       1
   19773   19764   19767   19776       1   19773   19764   19770   19782       1
   19773   19764   19770   19785       1   19773   19788  -19806   19785       1
   19773   19788   19806   19821       1   19773   19788   19809   19824       1
   19770   19764   19767   19776       1   19770   19764   19773   19788       1
   19770   19782  -19797   19776       1   19770   19782   19797   19818       1
   19770   19785  -19806   19788       1   19770   19785   19806   19821       1
   19767   19764   19770   19782       1   19767   19764   19770   19785       1
   19767   19764   19773   19788       1   19767   19776   19794   19812       1
   19767   19776  -19797   19782       1   19767   19776   19797   19818       1
   19764   19767   19776   19794       1   19764   19767   19776   19797       1
   19764   19770  -19782   19797       1   19764   19770   19785   19806       1
   19764   19773  -19788   19806       1   19764   19773   19788   19809       1
   19953   19932   19950   19959       1   19953   19962  -19968   19959       1
   19950   19932   19953   19962       1   19950   19959  -19968   19962       1
   19932   19950   19959   19968       1   19932   19953  -19962   19968       1
   19929   19950   19932   19953       1   19929   19950   19959   19968       1
   19917   19896   19914   19929       1   19917   19932  -19950   19929       1
   19917   19932   19950   19959       1   19917   19932   19953   19962       1
   19914   19896   19917   19932       1   19914   19929  -19950   19932       1
   19914   19929   19950   19959       1   19905   19884   19902   19920       1
   19905   19926  -19938   19920       1   19902   19884   19905   19926       1
   19902   19920  -19938   19926       1   19896   19914   19929   19950       1
   19896   19917  -19932   19950       1   19896   19917   19932   19953       1
   19893   19878   19890   19905       1   19893   19914   19896   19917       1
   19893   19914   19929   19950       1   19890   19878   19893   19914       1
   19890   19905   19884   19902       1   19890   19905   19926   19938       1
   19884   19902   19920   19938       1   19884   19905  -19926   19938       1
   19881   19872   19875   19884       1   19881   19872   19878   19890       1
   19881   19872   19878   19893       1   19881   19896  -19914   19893       1
   19881   19896   19914   19929       1   19881   19896   19917   19932       1
   19878   19872   19875   19884       1   19878   19872   19881   19896       1
   19878   19890  -19905   19884       1   19878   19890   19905   19926       1
   19878   19893  -19914   19896       1   19878   19893   19914   19929       1
   19875   19872   19878   19890       1   19875   19872   19878   19893       1
   19875   19872   19881   19896       1   19875   19884   19902   19920       1
   19875   19884  -19905   19890       1   19875   19884   19905   19926       1
   19872   19875   19884   19902       1   19872   19875   19884   19905       1
   19872   19878  -19890   19905       1   19872   19878   19893   19914       1
   19872   19881  -19896   19914       1   19872   19881   19896   19917       1
   20061   20040   20058   20067       1   20061   20070  -20076   20067       1
   20058   20040   20061   20070       1   20058   20067  -20076   20070       1
   20040   20058   20067   20076       1   20040   20061  -20070   20076       1
   20037   20058   20040   20061       1   20037   20058   20067   20076       1
   20025   20004   20022   20037       1   20025   20040  -20058   20037       1
   20025   20040   20058   20067       1   20025   20040   20061   20070       1
   20022   20004   20025   20040       1   20022   20037  -20058   20040       1
   20022   20037   20058   20067       1   20013   19992   20010   20028       1
   20013   20034  -20046   20028       1   20010   19992   20013   20034       1
   20010   20028  -20046   20034       1   20004   20022   20037   20058       1
   20004   20025  -20040   20058       1   20004   20025   20040   20061       1
   20001   19986   19998   20013       1   20001   20022   20004   20025       1
   20001   20022   20037   20058       1   19998   19986   20001   20022       1
   19998   20013   19992   20010       1   19998   20013   20034   20046       1
   19992   20010   20028   20046       1   19992   20013  -20034   20046       1
   19989   19980   19983   19992       1   19989   19980   19986   19998       1
   19989   19980   19986   20001       1   19989   20004  -20022   20001       1
   19989   20004   20022   20037       1   19989   20004   20025   20040       1
   19986   19980   19983   19992       1   19986   19980   19989   20004       1
   19986   19998  -20013   19992       1   19986   19998   20013   20034       1
   19986   20001  -20022   20004       1   19986   20001   20022   20037       1
   19983   19980   19986   19998       1   19983   19980   19986   20001       1
   19983   19980   19989   20004       1   19983   19992   20010   20028       1
   19983   19992  -20013   19998       1   19983   19992   20013   20034       1
   19980   19983   19992   20010       1   19980   19983   19992   20013       1
   19980   19986  -19998   20013       1   19980   19986   20001   20022       1
   19980   19989  -20004   20022       1   19980   19989   20004   20025       1
   20169   20148   20166   20175       1   20169   20178  -20184   20175       1
   20166   20148   20169   20178       1   20166   20175  -20184   20178       1
   20148   20166   20175   20184       1   20148   20169  -20178   20184       1
   20145   20166   20148   20169       1   20145   20166   20175   20184       1
   20133   20112   20130   20145       1   20133   20148  -20166   20145       1
   20133   20148   20166   20175       1   20133   20148   20169   20178       1
   20130   20112   20133   20148       1   20130   20145  -20166   20148       1
   20130   20145   20166   20175       1   20121   20100   20118   20136       1
   20121   20142  -20154   20136       1   20118   20100   20121   20142       1
   20118   20136  -20154   20142       1   20112   20130   20145   20166       1
   20112   20133  -20148   20166       1   20112   20133   20148   20169       1
   20109   20094   20106   20121       1   20109   20130   20112   20133       1
   20109   20130   20145   20166       1   20106   20094   20109   20130       1
   20106   20121   20100   20118       1   20106   20121   20142   20154       1
   20100   20118   20136   20154       1   20100   20121  -20142   20154       1
   20097   20088   20091   20100       1   20097   20088   20094   20106       1
   20097   20088   20094   20109       1   20097   20112  -20130   20109       1
   20097   20112   20130   20145       1   20097   20112   20133   20148       1
   20094   20088   20091   20100       1   20094   20088   20097   20112       1
   20094   20106  -20121   20100       1   20094   20106   20121   20142       1
   20094   20109  -20130   20112       1   20094   20109   20130   20145       1
   20091   20088   20094   20106       1   20091   20088   20094   20109       1
   20091   20088   20097   20112       1   20091   20100   20118   20136       1
   20091   20100  -20121   20106       1   20091   20100   20121   20142       1
   20088   20091   20100   20118       1   20088   20091   20100   20121       1
   20088   20094  -20106   20121       1   20088   20094   20109   20130       1
   20088   20097  -20112   20130       1   20088   20097   20112   20133       1
   20277   20256   20274   20283       1   20277   20286  -20292   20283       1
   20274   20256   20277   20286       1   20274   20283  -20292   20286       1
   20256   20274   20283   20292       1   20256   20277  -20286   20292       1
   20253   20274   20256   20277       1   20253   20274   20283   20292       1
   20241   20220   20238   20253       1   20241   20256  -20274   20253       1
   20241   20256   20274   20283       1   20241   20256   20277   20286       1
   20238   20220   20241   20256       1   20238   20253  -20274   20256       1
   20238   20253   20274   20283       1   20229   20208   20226   20244       1
   20229   20250  -20262   20244       1   20226   20208   20229   20250       1
   20226   20244  -20262   20250       1   20220   20238   20253   20274       1
   20220   20241  -20256   20274       1   20220   20241   20256   20277       1
   20217   20202   20214   20229       1   20217   20238   20220   20241       1
   20217   20238   20253   20274       1   20214   20202   20217   20238       1
   20214   20229   20208   20226       1   20214   20229   20250   20262       1
   20208   20226   20244   20262       1   20208   20229  -20250   20262       1
   20205   20196   20199   20208       1   20205   20196   20202   20214       1
   20205   20196   20202   20217       1   20205   20220  -20238   20217       1
   20205   20220   20238   20253       1   20205   20220   20241   20256       1
   20202   20196   20199   20208       1   20202   20196   20205   20220       1
   20202   20214  -20229   20208       1   20202   20214   20229   20250       1
   20202   20217  -20238   20220       1   20202   20217   20238   20253       1
   20199   20196   20202   20214       1   20199   20196   20202   20217       1
   20199   20196   20205   20220       1   20199   20208   20226   20244       1
   20199   20208  -20229   20214       1   20199   20208   20229   20250       1
   20196   20199   20208   20226       1   20196   20199   20208   20229       1
   20196   20202  -20214   20229       1   20196   20202   20217   20238       1
   20196   20205  -20220   20238       1   20196   20205   20220   20241       1
   20385   20364   20382   20391       1   20385   20394  -20400   20391       1
   20382   20364   20385   20394       1   20382   20391  -20400   20394       1
   20364   20382   20391   20400       1   20364   20385  -20394   20400       1
   20361   20382   20364   20385       1   20361   20382   20391   20400       1
   20349   20328   20346   20361       1   20349   20364  -20382   20361       1
   20349   20364   20382   20391       1   20349   20364   20385   20394       1
   20346   20328   20349   20364       1   20346   20361  -20382   20364       1
   20346   20361   20382   20391       1   20337   20316   20334   20352       1
   20337   20358  -20370   20352       1   20334   20316   20337   20358       1
   20334   20352  -20370   20358       1   20328   20346   20361   20382       1
   20328   20349  -20364   20382       1   20328   20349   20364   20385       1
   20325   20310   20322   20337       1   20325   20346   20328   20349       1
   20325   20346   20361   20382       1   20322   20310   20325   20346       1
   20322   20337   20316   20334       1   20322   20337   20358   20370       1
   20316   20334   20352   20370       1   20316   20337  -20358   20370       1
   20313   20304   20307   20316       1   20313   20304   20310   20322       1
   20313   20304   20310   20325       1   20313   20328  -20346   20325       1
   20313   20328   20346   20361       1   20313   20328   20349   20364       1
   20310   20304   20307   20316       1   20310   20304   20313   20328       1
   20310   20322  -20337   20316       1   20310   20322   20337   20358       1
   20310   20325  -20346   20328       1   20310   20325   20346   20361       1
   20307   20304   20310   20322       1   20307   20304   20310   20325       1
   20307   20304   20313   20328       1   20307   20316   20334   20352       1
   20307   20316  -20337   20322       1   20307   20316   20337   20358       1
   20304   20307   20316   20334       1   20304   20307   20316   20337       1
   20304   20310  -20322   20337       1   20304   20310   20325   20346       1
   20304   20313  -20328   20346       1   20304   20313   20328   20349       1
   20493   20472   20490   20499       1   20493   20502  -20508   20499       1
   20490   20472   20493   20502       1   20490   20499  -20508   20502       1
   20472   20490   20499   20508       1   20472   20493  -20502   20508       1
   20469   20490   20472   20493       1   20469   20490   20499   20508       1
   20457   20436   20454   20469       1   20457   20472  -20490   20469       1
   20457   20472   20490   20499       1   20457   20472   20493   20502       1
   20454   20436   20457   20472       1   20454   20469  -20490   20472       1
   20454   20469   20490   20499       1   20445   20424   20442   20460       1
   20445   20466  -20478   20460       1   20442   20424   20445   20466       1
   20442   20460  -20478   20466       1   20436   20454   20469   20490       1
   20436   20457  -20472   20490       1   20436   20457   20472   20493       1
   20433   20418   20430   20445       1   20433   20454   20436   20457       1
   20433   20454   20469   20490       1   20430   20418   20433   20454       1
   20430   20445   20424   20442       1   20430   20445   20466   20478       1
   20424   20442   20460   20478       1   20424   20445  -20466   20478       1
   20421   20412   20415   20424       1   20421   20412   20418   20430       1
   20421   20412   20418   20433       1   20421   20436  -20454   20433       1
   20421   20436   20454   20469       1   20421   20436   20457   20472       1
   20418   20412   20415   20424       1   20418   20412   20421   20436       1
   20418   20430  -20445   20424       1   20418   20430   20445   20466       1
   20418   20433  -20454   20436       1   20418   20433   20454   20469       1
   20415   20412   20418   20430       1   20415   20412   20418   20433       1
   20415   20412   20421   20436       1   20415   20424   20442   20460       1
   20415   20424  -20445   20430       1   20415   20424   20445   20466       1
   20412   20415   20424   20442       1   20412   20415   20424   20445       1
   20412   20418  -20430   20445       1   20412   20418   20433   20454       1
   20412   20421  -20436   20454       1   20412   20421   20436   20457       1
   20601   20580   20598   20607       1   20601   20610  -20616   20607       1
   20598   20580   20601   20610       1   20598   20607  -20616   20610       1
   20580   20598   20607   20616       1   20580   20601  -20610   20616       1
   20577   20598   20580   20601       1   20577   20598   20607   20616       1
   20565   20544   20562   20577       1   20565   20580  -20598   20577       1
   20565   20580   20598   20607       1   20565   20580   20601   20610       1
   20562   20544   20565   20580       1   20562   20577  -20598   20580       1
   20562   20577   20598   20607       1   20553   20532   20550   20568       1
   20553   20574  -20586   20568       1   20550   20532   20553   20574       1
   20550   20568  -20586   20574       1   20544   20562   20577   20598       1
   20544   20565  -20580   20598       1   20544   20565   20580   20601       1
   20541   20526   20538   20553       1   20541   20562   20544   20565       1
   20541   20562   20577   20598       1   20538   20526   20541   20562       1
   20538   20553   20532   20550       1   20538   20553   20574   20586       1
   20532   20550   20568   20586       1   20532   20553  -20574   20586       1
   20529   20520   20523   20532       1   20529   20520   20526   20538       1
   20529   20520   20526   20541       1   20529   20544  -20562   20541       1
   20529   20544   20562   20577       1   20529   20544   20565   20580       1
   20526   20520   20523   20532       1   20526   20520   20529   20544       1
   20526   20538  -20553   20532       1   20526   20538   20553   20574       1
   20526   20541  -20562   20544       1   20526   20541   20562   20577       1
   20523   20520   20526   20538       1   20523   20520   20526   20541       1
   20523   20520   20529   20544       1   20523   20532   20550   20568       1
   20523   20532  -20553   20538       1   20523   20532   20553   20574       1
   20520   20523   20532   20550       1   20520   20523   20532   20553       1
   20520   20526  -20538   20553       1   20520   20526   20541   20562       1
   20520   20529  -20544   20562       1   20520   20529   20544   20565       1
   20709   20688   20706   20715       1   20709   20718  -20724   20715       1
   20706   20688   20709   20718       1   20706   20715  -20724   20718       1
   20688   20706   20715   20724       1   20688   20709  -20718   20724       1
   20685   20706   20688   20709       1   20685   20706   20715   20724       1
   20673   20652   20670   20685       1   20673   20688  -20706   20685       1
   20673   20688   20706   20715       1   20673   20688   20709   20718       1
   20670   20652   20673   20688       1   20670   20685  -20706   20688       1
   20670   20685   20706   20715       1   20661   20640   20658   20676       1
   20661   20682  -20694   20676       1   20658   20640   20661   20682       1
   20658   20676  -20694   20682       1   20652   20670   20685   20706       1
   20652   20673  -20688   20706       1   20652   20673   20688   20709       1
   20649   20634   20646   20661       1   20649   20670   20652   20673       1
   20649   20670   20685   20706       1   20646   20634   20649   20670       1
   20646   20661   20640   20658       1   20646   20661   20682   20694       1
   20640   20658   20676   20694       1   20640   20661  -20682   20694       1
   20637   20628   20631   20640       1   20637   20628   20634   20646       1
   20637   20628   20634   20649       1   20637   20652  -20670   20649       1
   20637   20652   20670   20685       1   20637   20652   20673   20688       1
   20634   20628   20631   20640       1   20634   20628   20637   20652       1
   20634   20646  -20661   20640       1   20634   20646   20661   20682       1
   20634   20649  -20670   20652       1   20634   20649   20670   20685       1
   20631   20628   20634   20646       1   20631   20628   20634   20649       1
   20631   20628   20637   20652       1   20631   20640   20658   20676       1
   20631   20640  -20661   20646       1   20631   20640   20661   20682       1
   20628   20631   20640   20658       1   20628   20631   20640   20661       1
   20628   20634  -20646   20661       1   20628   20634   20649   20670       1
   20628   20637  -20652   20670       1   20628   20637   20652   20673       1
   20817   20796   20814   20823       1   20817   20826  -20832   20823       1
   20814   20796   20817   20826       1   20814   20823  -20832   20826       1
   20796   20814   20823   20832       1   20796   20817  -20826   20832       1
   20793   20814   20796   20817       1   20793   20814   20823   20832       1
   20781   20760   20778   20793       1   20781   20796  -20814   20793       1
   20781   20796   20814   20823       1   20781   20796   20817   20826       1
   20778   20760   20781   20796       1   20778   20793  -20814   20796       1
   20778   20793   20814   20823       1   20769   20748   20766   20784       1
   20769   20790  -20802   20784       1   20766   20748   20769   20790       1
   20766   20784  -20802   20790       1   20760   20778   20793   20814       1
   20760   20781  -20796   20814       1   20760   20781   20796   20817       1
   20757   20742   20754   20769       1   20757   20778   20760   20781       1
   20757   20778   20793   20814       1   20754   20742   20757   20778       1
   20754   20769   20748   20766       1   20754   20769   20790   20802       1
   20748   20766   20784   20802       1   20748   20769  -20790   20802       1
   20745   20736   20739   20748       1   20745   20736   20742   20754       1
   20745   20736   20742   20757       1   20745   20760  -20778   20757       1
   20745   20760   20778   20793       1   20745   20760   20781   20796       1
   20742   20736   20739   20748       1   20742   20736   20745   20760       1
   20742   20754  -20769   20748       1   20742   20754   20769   20790       1
   20742   20757  -20778   20760       1   20742   20757   20778   20793       1
   20739   20736   20742   20754       1   20739   20736   20742   20757       1
   20739   20736   20745   20760       1   20739   20748   20766   20784       1
   20739   20748  -20769   20754       1   20739   20748   20769   20790       1
   20736   20739   20748   20766       1   20736   20739   20748   20769       1
   20736   20742  -20754   20769       1   20736   20742   20757   20778       1
   20736   20745  -20760   20778       1   20736   20745   20760   20781       1
   20925   20904   20922   20931       1   20925   20934  -20940   20931       1
   20922   20904   20925   20934       1   20922   20931  -20940   20934       1
   20904   20922   20931   20940       1   20904   20925  -20934   20940       1
   20901   20922   20904   20925       1   20901   20922   20931   20940       1
   20889   20868   20886   20901       1   20889   20904  -20922   20901       1
   20889   20904   20922   20931       1   20889   20904   20925   20934       1
   20886   20868   20889   20904       1   20886   20901  -20922   20904       1
   20886   20901   20922   20931       1   20877   20856   20874   20892       1
   20877   20898  -20910   20892       1   20874   20856   20877   20898       1
   20874   20892  -20910   20898       1   20868   20886   20901   20922       1
   20868   20889  -20904   20922       1   20868   20889   20904   20925       1
   20865   20850   20862   20877       1   20865   20886   20868   20889       1
   20865   20886   20901   20922       1   20862   20850   20865   20886       1
   20862   20877   20856   20874       1   20862   20877   20898   20910       1
   20856   20874   20892   20910       1   20856   20877  -20898   20910       1
   20853   20844   20847   20856       1   20853   20844   20850   20862       1
   20853   20844   20850   20865       1   20853   20868  -20886   20865       1
   20853   20868   20886   20901       1   20853   20868   20889   20904       1
   20850   20844   20847   20856       1   20850   20844   20853   20868       1
   20850   20862  -20877   20856       1   20850   20862   20877   20898       1
   20850   20865  -20886   20868       1   20850   20865   20886   20901       1
   20847   20844   20850   20862       1   20847   20844   20850   20865       1
   20847   20844   20853   20868       1   20847   20856   20874   20892       1
   20847   20856  -20877   20862       1   20847   20856   20877   20898       1
   20844   20847   20856   20874       1   20844   20847   20856   20877       1
   20844   20850  -20862   20877       1   20844   20850   20865   20886       1
   20844   20853  -20868   20886       1   20844   20853   20868   20889       1
   21033   21012   21030   21039       1   21033   21042  -21048   21039       1
   21030   21012   21033   21042       1   21030   21039  -21048   21042       1
   21012   21030   21039   21048       1   21012   21033  -21042   21048       1
   21009   21030   21012   21033       1   21009   21030   21039   21048       1
   20997   20976   20994   21009       1   20997   21012  -21030   21009       1
   20997   21012   21030   21039       1   20997   21012   21033   21042       1
   20994   20976   20997   21012       1   20994   21009  -21030   21012       1
   20994   21009   21030   21039       1   20985   20964   20982   21000       1
   20985   21006  -21018   21000       1   20982   20964   20985   21006       1
   20982   21000  -21018   21006       1   20976   20994   21009   21030       1
   20976   20997  -21012   21030       1   20976   20997   21012   21033       1
   20973   20958   20970   20985       1   20973   20994   20976   20997       1
   20973   20994   21009   21030       1   20970   20958   20973   20994       1
   20970   20985   20964   20982       1   20970   20985   21006   21018       1
   20964   20982   21000   21018       1   20964   20985  -21006   21018       1
   20961   20952   20955   20964       1   20961   20952   20958   20970       1
   20961   20952   20958   20973       1   20961   20976  -20994   20973       1
   20961   20976   20994   21009       1   20961   20976   20997   21012       1
   20958   20952   20955   20964       1   20958   20952   20961   20976       1
   20958   20970  -20985   20964       1   20958   20970   20985   21006       1
   20958   20973  -20994   20976       1   20958   20973   20994   21009       1
   20955   20952   20958   20970       1   20955   20952   20958   20973       1
   20955   20952   20961   20976       1   20955   20964   20982   21000       1
   20955   20964  -20985   20970       1   20955   20964   20985   21006       1
   20952   20955   20964   20982       1   20952   20955   20964   20985       1
   20952   20958  -20970   20985       1   20952   20958   20973   20994       1
   20952   20961  -20976   20994       1   20952   20961   20976   20997       1
   21141   21120   21138   21147       1   21141   21150  -21156   21147       1
   21138   21120   21141   21150       1   21138   21147  -21156   21150       1
   21120   21138   21147   21156       1   21120   21141  -21150   21156       1
   21117   21138   21120   21141       1   21117   21138   21147   21156       1
   21105   21084   21102   21117       1   21105   21120  -21138   21117       1
   21105   21120   21138   21147       1   21105   21120   21141   21150       1
   21102   21084   21105   21120       1   21102   21117  -21138   21120       1
   21102   21117   21138   21147       1   21093   21072   21090   21108       1
   21093   21114  -21126   21108       1   21090   21072   21093   21114       1
   21090   21108  -21126   21114       1   21084   21102   21117   21138       1
   21084   21105  -21120   21138       1   21084   21105   21120   21141       1
   21081   21066   21078   21093       1   21081   21102   21084   21105       1
   21081   21102   21117   21138       1   21078   21066   21081   21102       1
   21078   21093   21072   21090       1   21078   21093   21114   21126       1
   21072   21090   21108   21126       1   21072   21093  -21114   21126       1
   21069   21060   21063   21072       1   21069   21060   21066   21078       1
   21069   21060   21066   21081       1   21069   21084  -21102   21081       1
   21069   21084   21102   21117       1   21069   21084   21105   21120       1
   21066   21060   21063   21072       1   21066   21060   21069   21084       1
   21066   21078  -21093   21072       1   21066   21078   21093   21114       1
   21066   21081  -21102   21084       1   21066   21081   21102   21117       1
   21063   21060   21066   21078       1   21063   21060   21066   21081       1
   21063   21060   21069   21084       1   21063   21072   21090   21108       1
   21063   21072  -21093   21078       1   21063   21072   21093   21114       1
   21060   21063   21072   21090       1   21060   21063   21072   21093       1
   21060   21066  -21078   21093       1   21060   21066   21081   21102       1
   21060   21069  -21084   21102       1   21060   21069   21084   21105       1
   21249   21228   21246   21255       1   21249   21258  -21264   21255       1
   21246   21228   21249   21258       1   21246   21255  -21264   21258       1
   21228   21246   21255   21264       1   21228   21249  -21258   21264       1
   21225   21246   21228   21249       1   21225   21246   21255   21264       1
   21213   21192   21210   21225       1   21213   21228  -21246   21225       1
   21213   21228   21246   21255       1   21213   21228   21249   21258       1
   21210   21192   21213   21228       1   21210   21225  -21246   21228       1
   21210   21225   21246   21255       1   21201   21180   21198   21216       1
   21201   21222  -21234   21216       1   21198   21180   21201   21222       1
   21198   21216  -21234   21222       1   21192   21210   21225   21246       1
   21192   21213  -21228   21246       1   21192   21213   21228   21249       1
   21189   21174   21186   21201       1   21189   21210   21192   21213       1
   21189   21210   21225   21246       1   21186   21174   21189   21210       1
   21186   21201   21180   21198       1   21186   21201   21222   21234       1
   21180   21198   21216   21234       1   21180   21201  -21222   21234       1
   21177   21168   21171   21180       1   21177   21168   21174   21186       1
   21177   21168   21174   21189       1   21177   21192  -21210   21189       1
   21177   21192   21210   21225       1   21177   21192   21213   21228       1
   21174   21168   21171   21180       1   21174   21168   21177   21192       1
   21174   21186  -21201   21180       1   21174   21186   21201   21222       1
   21174   21189  -21210   21192       1   21174   21189   21210   21225       1
   21171   21168   21174   21186       1   21171   21168   21174   21189       1
   21171   21168   21177   21192       1   21171   21180   21198   21216       1
   21171   21180  -21201   21186       1   21171   21180   21201   21222       1
   21168   21171   21180   21198       1   21168   21171   21180   21201       1
   21168   21174  -21186   21201       1   21168   21174   21189   21210       1
   21168   21177  -21192   21210       1   21168   21177   21192   21213       1
   21357   21336   21354   21363       1   21357   21366  -21372   21363       1
   21354   21336   21357   21366       1   21354   21363  -21372   21366       1
   21336   21354   21363   21372       1   21336   21357  -21366   21372       1
   21333   21354   21336   21357       1   21333   21354   21363   21372       1
   21321   21300   21318   21333       1   21321   21336  -21354   21333       1
   21321   21336   21354   21363       1   21321   21336   21357   21366       1
   21318   21300   21321   21336       1   21318   21333  -21354   21336       1
   21318   21333   21354   21363       1   21309   21288   21306   21324       1
   21309   21330  -21342   21324       1   21306   21288   21309   21330       1
   21306   21324  -21342   21330       1   21300   21318   21333   21354       1
   21300   21321  -21336   21354       1   21300   21321   21336   21357       1
   21297   21282   21294   21309       1   21297   21318   21300   21321       1
   21297   21318   21333   21354       1   21294   21282   21297   21318       1
   21294   21309   21288   21306       1   21294   21309   21330   21342       1
   21288   21306   21324   21342       1   21288   21309  -21330   21342       1
   21285   21276   21279   21288       1   21285   21276   21282   21294       1
   21285   21276   21282   21297       1   21285   21300  -21318   21297       1
   21285   21300   21318   21333       1   21285   21300   21321   21336       1
   21282   21276   21279   21288       1   21282   21276   21285   21300       1
   21282   21294  -21309   21288       1   21282   21294   21309   21330       1
   21282   21297  -21318   21300       1   21282   21297   21318   21333       1
   21279   21276   21282   21294       1   21279   21276   21282   21297       1
   21279   21276   21285   21300       1   21279   21288   21306   21324       1
   21279   21288  -21309   21294       1   21279   21288   21309   21330       1
   21276   21279   21288   21306       1   21276   21279   21288   21309       1
   21276   21282  -21294   21309       1   21276   21282   21297   21318       1
   21276   21285  -21300   21318       1   21276   21285   21300   21321       1
   21465   21444   21462   21471       1   21465   21474  -21480   21471       1
   21462   21444   21465   21474       1   21462   21471  -21480   21474       1
   21444   21462   21471   21480       1   21444   21465  -21474   21480       1
   21441   21462   21444   21465       1   21441   21462   21471   21480       1
   21429   21408   21426   21441       1   21429   21444  -21462   21441       1
   21429   21444   21462   21471       1   21429   21444   21465   21474       1
   21426   21408   21429   21444       1   21426   21441  -21462   21444       1
   21426   21441   21462   21471       1   21417   21396   21414   21432       1
   21417   21438  -21450   21432       1   21414   21396   21417   21438       1
   21414   21432  -21450   21438       1   21408   21426   21441   21462       1
   21408   21429  -21444   21462       1   21408   21429   21444   21465       1
   21405   21390   21402   21417       1   21405   21426   21408   21429       1
   21405   21426   21441   21462       1   21402   21390   21405   21426       1
   21402   21417   21396   21414       1   21402   21417   21438   21450       1
   21396   21414   21432   21450       1   21396   21417  -21438   21450       1
   21393   21384   21387   21396       1   21393   21384   21390   21402       1
   21393   21384   21390   21405       1   21393   21408  -21426   21405       1
   21393   21408   21426   21441       1   21393   21408   21429   21444       1
   21390   21384   21387   21396       1   21390   21384   21393   21408       1
   21390   21402  -21417   21396       1   21390   21402   21417   21438       1
   21390   21405  -21426   21408       1   21390   21405   21426   21441       1
   21387   21384   21390   21402       1   21387   21384   21390   21405       1
   21387   21384   21393   21408       1   21387   21396   21414   21432       1
   21387   21396  -21417   21402       1   21387   21396   21417   21438       1
   21384   21387   21396   21414       1   21384   21387   21396   21417       1
   21384   21390  -21402   21417       1   21384   21390   21405   21426       1
   21384   21393  -21408   21426       1   21384   21393   21408   21429       1
   21573   21552   21570   21579       1   21573   21582  -21588   21579       1
   21570   21552   21573   21582       1   21570   21579  -21588   21582       1
   21552   21570   21579   21588       1   21552   21573  -21582   21588       1
   21549   21570   21552   21573       1   21549   21570   21579   21588       1
   21537   21516   21534   21549       1   21537   21552  -21570   21549       1
   21537   21552   21570   21579       1   21537   21552   21573   21582       1
   21534   21516   21537   21552       1   21534   21549  -21570   21552       1
   21534   21549   21570   21579       1   21525   21504   21522   21540       1
   21525   21546  -21558   21540       1   21522   21504   21525   21546       1
   21522   21540  -21558   21546       1   21516   21534   21549   21570       1
   21516   21537  -21552   21570       1   21516   21537   21552   21573       1
   21513   21498   21510   21525       1   21513   21534   21516   21537       1
   21513   21534   21549   21570       1   21510   21498   21513   21534       1
   21510   21525   21504   21522       1   21510   21525   21546   21558       1
   21504   21522   21540   21558       1   21504   21525  -21546   21558       1
   21501   21492   21495   21504       1   21501   21492   21498   21510       1
   21501   21492   21498   21513       1   21501   21516  -21534   21513       1
   21501   21516   21534   21549       1   21501   21516   21537   21552       1
   21498   21492   21495   21504       1   21498   21492   21501   21516       1
   21498   21510  -21525   21504       1   21498   21510   21525   21546       1
   21498   21513  -21534   21516       1   21498   21513   21534   21549       1
   21495   21492   21498   21510       1   21495   21492   21498   21513       1
   21495   21492   21501   21516       1   21495   21504   21522   21540       1
   21495   21504  -21525   21510       1   21495   21504   21525   21546       1
   21492   21495   21504   21522       1   21492   21495   21504   21525       1
   21492   21498  -21510   21525       1   21492   21498   21513   21534       1
   21492   21501  -21516   21534       1   21492   21501   21516   21537       1
   21681   21660   21678   21687       1   21681   21690  -21696   21687       1
   21678   21660   21681   21690       1   21678   21687  -21696   21690       1
   21660   21678   21687   21696       1   21660   21681  -21690   21696       1
   21657   21678   21660   21681       1   21657   21678   21687   21696       1
   21645   21624   21642   21657       1   21645   21660  -21678   21657       1
   21645   21660   21678   21687       1   21645   21660   21681   21690       1
   21642   21624   21645   21660       1   21642   21657  -21678   21660       1
   21642   21657   21678   21687       1   21633   21612   21630   21648       1
   21633   21654  -21666   21648       1   21630   21612   21633   21654       1
   21630   21648  -21666   21654       1   21624   21642   21657   21678       1
   21624   21645  -21660   21678       1   21624   21645   21660   21681       1
   21621   21606   21618   21633       1   21621   21642   21624   21645       1
   21621   21642   21657   21678       1   21618   21606   21621   21642       1
   21618   21633   21612   21630       1   21618   21633   21654   21666       1
   21612   21630   21648   21666       1   21612   21633  -21654   21666       1
   21609   21600   21603   21612       1   21609   21600   21606   21618       1
   21609   21600   21606   21621       1   21609   21624  -21642   21621       1
   21609   21624   21642   21657       1   21609   21624   21645   21660       1
   21606   21600   21603   21612       1   21606   21600   21609   21624       1
   21606   21618  -21633   21612       1   21606   21618   21633   21654       1
   21606   21621  -21642   21624       1   21606   21621   21642   21657       1
   21603   21600   21606   21618       1   21603   21600   21606   21621       1
   21603   21600   21609   21624       1   21603   21612   21630   21648       1
   21603   21612  -21633   21618       1   21603   21612   21633   21654       1
   21600   21603   21612   21630       1   21600   21603   21612   21633       1
   21600   21606  -21618   21633       1   21600   21606   21621   21642       1
   21600   21609  -21624   21642       1   21600   21609   21624   21645       1
   21789   21768   21786   21795       1   21789   21798  -21804   21795       1
   21786   21768   21789   21798       1   21786   21795  -21804   21798       1
   21768   21786   21795   21804       1   21768   21789  -21798   21804       1
   21765   21786   21768   21789       1   21765   21786   21795   21804       1
   21753   21732   21750   21765       1   21753   21768  -21786   21765       1
   21753   21768   21786   21795       1   21753   21768   21789   21798       1
   21750   21732   21753   21768       1   21750   21765  -21786   21768       1
   21750   21765   21786   21795       1   21741   21720   21738   21756       1
   21741   21762  -21774   21756       1   21738   21720   21741   21762       1
   21738   21756  -21774   21762       1   21732   21750   21765   21786       1
   21732   21753  -21768   21786       1   21732   21753   21768   21789       1
   21729   21714   21726   21741       1   21729   21750   21732   21753       1
   21729   21750   21765   21786       1   21726   21714   21729   21750       1
   21726   21741   21720   21738       1   21726   21741   21762   21774       1
   21720   21738   21756   21774       1   21720   21741  -21762   21774       1
   21717   21708   21711   21720       1   21717   21708   21714   21726       1
   21717   21708   21714   21729       1   21717   21732  -21750   21729       1
   21717   21732   21750   21765       1   21717   21732   21753   21768       1
   21714   21708   21711   21720       1   21714   21708   21717   21732       1
   21714   21726  -21741   21720       1   21714   21726   21741   21762       1
   21714   21729  -21750   21732       1   21714   21729   21750   21765       1
   21711   21708   21714   21726       1   21711   21708   21714   21729       1
   21711   21708   21717   21732       1   21711   21720   21738   21756       1
   21711   21720  -21741   21726       1   21711   21720   21741   21762       1
   21708   21711   21720   21738       1   21708   21711   21720   21741       1
   21708   21714  -21726   21741       1   21708   21714   21729   21750       1
   21708   21717  -21732   21750       1   21708   21717   21732   21753       1
   21897   21876   21894   21903       1   21897   21906  -21912   21903       1
   21894   21876   21897   21906       1   21894   21903  -21912   21906       1
   21876   21894   21903   21912       1   21876   21897  -21906   21912       1
   21873   21894   21876   21897       1   21873   21894   21903   21912       1
   21861   21840   21858   21873       1   21861   21876  -21894   21873       1
   21861   21876   21894   21903       1   21861   21876   21897   21906       1
   21858   21840   21861   21876       1   21858   21873  -21894   21876       1
   21858   21873   21894   21903       1   21849   21828   21846   21864       1
   21849   21870  -21882   21864       1   21846   21828   21849   21870       1
   21846   21864  -21882   21870       1   21840   21858   21873   21894       1
   21840   21861  -21876   21894       1   21840   21861   21876   21897       1
   21837   21822   21834   21849       1   21837   21858   21840   21861       1
   21837   21858   21873   21894       1   21834   21822   21837   21858       1
   21834   21849   21828   21846       1   21834   21849   21870   21882       1
   21828   21846   21864   21882       1   21828   21849  -21870   21882       1
   21825   21816   21819   21828       1   21825   21816   21822   21834       1
   21825   21816   21822   21837       1   21825   21840  -21858   21837       1
   21825   21840   21858   21873       1   21825   21840   21861   21876       1
   21822   21816   21819   21828       1   21822   21816   21825   21840       1
   21822   21834  -21849   21828       1   21822   21834   21849   21870       1
   21822   21837  -21858   21840       1   21822   21837   21858   21873       1
   21819   21816   21822   21834       1   21819   21816   21822   21837       1
   21819   21816   21825   21840       1   21819   21828   21846   21864       1
   21819   21828  -21849   21834       1   21819   21828   21849   21870       1
   21816   21819   21828   21846       1   21816   21819   21828   21849       1
   21816   21822  -21834   21849       1   21816   21822   21837   21858       1
   21816   21825  -21840   21858       1   21816   21825   21840   21861       1
   22005   21984   22002   22011       1   22005   22014  -22020   22011       1
   22002   21984   22005   22014       1   22002   22011  -22020   22014       1
   21984   22002   22011   22020       1   21984   22005  -22014   22020       1
   21981   22002   21984   22005       1   21981   22002   22011   22020       1
   21969   21948   21966   21981       1   21969   21984  -22002   21981       1
   21969   21984   22002   22011       1   21969   21984   22005   22014       1
   21966   21948   21969   21984       1   21966   21981  -22002   21984       1
   21966   21981   22002   22011       1   21957   21936   21954   21972       1
   21957   21978  -21990   21972       1   21954   21936   21957   21978       1
   21954   21972  -21990   21978       1   21948   21966   21981   22002       1
   21948   21969  -21984   22002       1   21948   21969   21984   22005       1
   21945   21930   21942   21957       1   21945   21966   21948   21969       1
   21945   21966   21981   22002       1   21942   21930   21945   21966       1
   21942   21957   21936   21954       1   21942   21957   21978   21990       1
   21936   21954   21972   21990       1   21936   21957  -21978   21990       1
   21933   21924   21927   21936       1   21933   21924   21930   21942       1
   21933   21924   21930   21945       1   21933   21948  -21966   21945       1
   21933   21948   21966   21981       1   21933   21948   21969   21984       1
   21930   21924   21927   21936       1   21930   21924   21933   21948       1
   21930   21942  -21957   21936       1   21930   21942   21957   21978       1
   21930   21945  -21966   21948       1   21930   21945   21966   21981       1
   21927   21924   21930   21942       1   21927   21924   21930   21945       1
   21927   21924   21933   21948       1   21927   21936   21954   21972       1
   21927   21936  -21957   21942       1   21927   21936   21957   21978       1
   21924   21927   21936   21954       1   21924   21927   21936   21957       1
   21924   21930  -21942   21957       1   21924   21930   21945   21966       1
   21924   21933  -21948   21966       1   21924   21933   21948   21969       1
   22113   22092   22110   22119       1   22113   22122  -22128   22119       1
   22110   22092   22113   22122       1   22110   22119  -22128   22122       1
   22092   22110   22119   22128       1   22092   22113  -22122   22128       1
   22089   22110   22092   22113       1   22089   22110   22119   22128       1
   22077   22056   22074   22089       1   22077   22092  -22110   22089       1
   22077   22092   22110   22119       1   22077   22092   22113   22122       1
   22074   22056   22077   22092       1   22074   22089  -22110   22092       1
   22074   22089   22110   22119       1   22065   22044   22062   22080       1
   22065   22086  -22098   22080       1   22062   22044   22065   22086       1
   22062   22080  -22098   22086       1   22056   22074   22089   22110       1
   22056   22077  -22092   22110       1   22056   22077   22092   22113       1
   22053   22038   22050   22065       1   22053   22074   22056   22077       1
   22053   22074   22089   22110       1   22050   22038   22053   22074       1
   22050   22065   22044   22062       1   22050   22065   22086   22098       1
   22044   22062   22080   22098       1   22044   22065  -22086   22098       1
   22041   22032   22035   22044       1   22041   22032   22038   22050       1
   22041   22032   22038   22053       1   22041   22056  -22074   22053       1
   22041   22056   22074   22089       1   22041   22056   22077   22092       1
   22038   22032   22035   22044       1   22038   22032   22041   22056       1
   22038   22050  -22065   22044       1   22038   22050   22065   22086       1
   22038   22053  -22074   22056       1   22038   22053   22074   22089       1
   22035   22032   22038   22050       1   22035   22032   22038   22053       1
   22035   22032   22041   22056       1   22035   22044   22062   22080       1
   22035   22044  -22065   22050       1   22035   22044   22065   22086       1
   22032   22035   22044   22062       1   22032   22035   22044   22065       1
   22032   22038  -22050   22065       1   22032   22038   22053   22074       1
   22032   22041  -22056   22074       1   22032   22041   22056   22077       1
   22221   22200   22218   22227       1   22221   22230  -22236   22227       1
   22218   22200   22221   22230       1   22218   22227  -22236   22230       1
   22200   22218   22227   22236       1   22200   22221  -22230   22236       1
   22197   22218   22200   22221       1   22197   22218   22227   22236       1
   22185   22164   22182   22197       1   22185   22200  -22218   22197       1
   22185   22200   22218   22227       1   22185   22200   22221   22230       1
   22182   22164   22185   22200       1   22182   22197  -22218   22200       1
   22182   22197   22218   22227       1   22173   22152   22170   22188       1
   22173   22194  -22206   22188       1   22170   22152   22173   22194       1
   22170   22188  -22206   22194       1   22164   22182   22197   22218       1
   22164   22185  -22200   22218       1   22164   22185   22200   22221       1
   22161   22146   22158   22173       1   22161   22182   22164   22185       1
   22161   22182   22197   22218       1   22158   22146   22161   22182       1
   22158   22173   22152   22170       1   22158   22173   22194   22206       1
   22152   22170   22188   22206       1   22152   22173  -22194   22206       1
   22149   22140   22143   22152       1   22149   22140   22146   22158       1
   22149   22140   22146   22161       1   22149   22164  -22182   22161       1
   22149   22164   22182   22197       1   22149   22164   22185   22200       1
   22146   22140   22143   22152       1   22146   22140   22149   22164       1
   22146   22158  -22173   22152       1   22146   22158   22173   22194       1
   22146   22161  -22182   22164       1   22146   22161   22182   22197       1
   22143   22140   22146   22158       1   22143   22140   22146   22161       1
   22143   22140   22149   22164       1   22143   22152   22170   22188       1
   22143   22152  -22173   22158       1   22143   22152   22173   22194       1
   22140   22143   22152   22170       1   22140   22143   22152   22173       1
   22140   22146  -22158   22173       1   22140   22146   22161   22182       1
   22140   22149  -22164   22182       1   22140   22149   22164   22185       1
   22329   22308   22326   22335       1   22329   22338  -22344   22335       1
   22326   22308   22329   22338       1   22326   22335  -22344   22338       1
   22308   22326   22335   22344       1   22308   22329  -22338   22344       1
   22305   22326   22308   22329       1   22305   22326   22335   22344       1
   22293   22272   22290   22305       1   22293   22308  -22326   22305       1
   22293   22308   22326   22335       1   22293   22308   22329   22338       1
   22290   22272   22293   22308       1   22290   22305  -22326   22308       1
   22290   22305   22326   22335       1   22281   22260   22278   22296       1
   22281   22302  -22314   22296       1   22278   22260   22281   22302       1
   22278   22296  -22314   22302       1   22272   22290   22305   22326       1
   22272   22293  -22308   22326       1   22272   22293   22308   22329       1
   22269   22254   22266   22281       1   22269   22290   22272   22293       1
   22269   22290   22305   22326       1   22266   22254   22269   22290       1
   22266   22281   22260   22278       1   22266   22281   22302   22314       1
   22260   22278   22296   22314       1   22260   22281  -22302   22314       1
   22257   22248   22251   22260       1   22257   22248   22254   22266       1
   22257   22248   22254   22269       1   22257   22272  -22290   22269       1
   22257   22272   22290   22305       1   22257   22272   22293   22308       1
   22254   22248   22251   22260       1   22254   22248   22257   22272       1
   22254   22266  -22281   22260       1   22254   22266   22281   22302       1
   22254   22269  -22290   22272       1   22254   22269   22290   22305       1
   22251   22248   22254   22266       1   22251   22248   22254   22269       1
   22251   22248   22257   22272       1   22251   22260   22278   22296       1
   22251   22260  -22281   22266       1   22251   22260   22281   22302       1
   22248   22251   22260   22278       1   22248   22251   22260   22281       1
   22248   22254  -22266   22281       1   22248   22254   22269   22290       1
   22248   22257  -22272   22290       1   22248   22257   22272   22293       1
   22437   22416   22434   22443       1   22437   22446  -22452   22443       1
   22434   22416   22437   22446       1   22434   22443  -22452   22446       1
   22416   22434   22443   22452       1   22416   22437  -22446   22452       1
   22413   22434   22416   22437       1   22413   22434   22443   22452       1
   22401   22380   22398   22413       1   22401   22416  -22434   22413       1
   22401   22416   22434   22443       1   22401   22416   22437   22446       1
   22398   22380   22401   22416       1   22398   22413  -22434   22416       1
   22398   22413   22434   22443       1   22389   22368   22386   22404       1
   22389   22410  -22422   22404       1   22386   22368   22389   22410       1
   22386   22404  -22422   22410       1   22380   22398   22413   22434       1
   22380   22401  -22416   22434       1   22380   22401   22416   22437       1
   22377   22362   22374   22389       1   22377   22398   22380   22401       1
   22377   22398   22413   22434       1   22374   22362   22377   22398       1
   22374   22389   22368   22386       1   22374   22389   22410   22422       1
   22368   22386   22404   22422       1   22368   22389  -22410   22422       1
   22365   22356   22359   22368       1   22365   22356   22362   22374       1
   22365   22356   22362   22377       1   22365   22380  -22398   22377       1
   22365   22380   22398   22413       1   22365   22380   22401   22416       1
   22362   22356   22359   22368       1   22362   22356   22365   22380       1
   22362   22374  -22389   22368       1   22362   22374   22389   22410       1
   22362   22377  -22398   22380       1   22362   22377   22398   22413       1
   22359   22356   22362   22374       1   22359   22356   22362   22377       1
   22359   22356   22365   22380       1   22359   22368   22386   22404       1
   22359   22368  -22389   22374       1   22359   22368   22389   22410       1
   22356   22359   22368   22386       1   22356   22359   22368   22389       1
   22356   22362  -22374   22389       1   22356   22362   22377   22398       1
   22356   22365  -22380   22398       1   22356   22365   22380   22401       1
   22545   22524   22542   22551       1   22545   22554  -22560   22551       1
   22542   22524   22545   22554       1   22542   22551  -22560   22554       1
   22524   22542   22551   22560       1   22524   22545  -22554   22560       1
   22521   22542   22524   22545       1   22521   22542   22551   22560       1
   22509   22488   22506   22521       1   22509   22524  -22542   22521       1
   22509   22524   22542   22551       1   22509   22524   22545   22554       1
   22506   22488   22509   22524       1   22506   22521  -22542   22524       1
   22506   22521   22542   22551       1   22497   22476   22494   22512       1
   22497   22518  -22530   22512       1   22494   22476   22497   22518       1
   22494   22512  -22530   22518       1   22488   22506   22521   22542       1
   22488   22509  -22524   22542       1   22488   22509   22524   22545       1
   22485   22470   22482   22497       1   22485   22506   22488   22509       1
   22485   22506   22521   22542       1   22482   22470   22485   22506       1
   22482   22497   22476   22494       1   22482   22497   22518   22530       1
   22476   22494   22512   22530       1   22476   22497  -22518   22530       1
   22473   22464   22467   22476       1   22473   22464   22470   22482       1
   22473   22464   22470   22485       1   22473   22488  -22506   22485       1
   22473   22488   22506   22521       1   22473   22488   22509   22524       1
   22470   22464   22467   22476       1   22470   22464   22473   22488       1
   22470   22482  -22497   22476       1   22470   22482   22497   22518       1
   22470   22485  -22506   22488       1   22470   22485   22506   22521       1
   22467   22464   22470   22482       1   22467   22464   22470   22485       1
   22467   22464   22473   22488       1   22467   22476   22494   22512       1
   22467   22476  -22497   22482       1   22467   22476   22497   22518       1
   22464   22467   22476   22494       1   22464   22467   22476   22497       1
   22464   22470  -22482   22497       1   22464   22470   22485   22506       1
   22464   22473  -22488   22506       1   22464   22473   22488   22509       1
   22653   22632   22650   22659       1   22653   22662  -22668   22659       1
   22650   22632   22653   22662       1   22650   22659  -22668   22662       1
   22632   22650   22659   22668       1   22632   22653  -22662   22668       1
   22629   22650   22632   22653       1   22629   22650   22659   22668       1
   22617   22596   22614   22629       1   22617   22632  -22650   22629       1
   22617   22632   22650   22659       1   22617   22632   22653   22662       1
   22614   22596   22617   22632       1   22614   22629  -22650   22632       1
   22614   22629   22650   22659       1   22605   22584   22602   22620       1
   22605   22626  -22638   22620       1   22602   22584   22605   22626       1
   22602   22620  -22638   22626       1   22596   22614   22629   22650       1
   22596   22617  -22632   22650       1   22596   22617   22632   22653       1
   22593   22578   22590   22605       1   22593   22614   22596   22617       1
   22593   22614   22629   22650       1   22590   22578   22593   22614       1
   22590   22605   22584   22602       1   22590   22605   22626   22638       1
   22584   22602   22620   22638       1   22584   22605  -22626   22638       1
   22581   22572   22575   22584       1   22581   22572   22578   22590       1
   22581   22572   22578   22593       1   22581   22596  -22614   22593       1
   22581   22596   22614   22629       1   22581   22596   22617   22632       1
   22578   22572   22575   22584       1   22578   22572   22581   22596       1
   22578   22590  -22605   22584       1   22578   22590   22605   22626       1
   22578   22593  -22614   22596       1   22578   22593   22614   22629       1
   22575   22572   22578   22590       1   22575   22572   22578   22593       1
   22575   22572   22581   22596       1   22575   22584   22602   22620       1
   22575   22584  -22605   22590       1   22575   22584   22605   22626       1
   22572   22575   22584   22602       1   22572   22575   22584   22605       1
   22572   22578  -22590   22605       1   22572   22578   22593   22614       1
   22572   22581  -22596   22614       1   22572   22581   22596   22617       1
   22761   22740   22758   22767       1   22761   22770  -22776   22767       1
   22758   22740   22761   22770       1   22758   22767  -22776   22770       1
   22740   22758   22767   22776       1   22740   22761  -22770   22776       1
   22737   22758   22740   22761       1   22737   22758   22767   22776       1
   22725   22704   22722   22737       1   22725   22740  -22758   22737       1
   22725   22740   22758   22767       1   22725   22740   22761   22770       1
   22722   22704   22725   22740       1   22722   22737  -22758   22740       1
   22722   22737   22758   22767       1   22713   22692   22710   22728       1
   22713   22734  -22746   22728       1   22710   22692   22713   22734       1
   22710   22728  -22746   22734       1   22704   22722   22737   22758       1
   22704   22725  -22740   22758       1   22704   22725   22740   22761       1
   22701   22686   22698   22713       1   22701   22722   22704   22725       1
   22701   22722   22737   22758       1   22698   22686   22701   22722       1
   22698   22713   22692   22710       1   22698   22713   22734   22746       1
   22692   22710   22728   22746       1   22692   22713  -22734   22746       1
   22689   22680   22683   22692       1   22689   22680   22686   22698       1
   22689   22680   22686   22701       1   22689   22704  -22722   22701       1
   22689   22704   22722   22737       1   22689   22704   22725   22740       1
   22686   22680   22683   22692       1   22686   22680   22689   22704       1
   22686   22698  -22713   22692       1   22686   22698   22713   22734       1
   22686   22701  -22722   22704       1   22686   22701   22722   22737       1
   22683   22680   22686   22698       1   22683   22680   22686   22701       1
   22683   22680   22689   22704       1   22683   22692   22710   22728       1
   22683   22692  -22713   22698       1   22683   22692   22713   22734       1
   22680   22683   22692   22710       1   22680   22683   22692   22713       1
   22680   22686  -22698   22713       1   22680   22686   22701   22722       1
   22680   22689  -22704   22722       1   22680   22689   22704   22725       1
   22869   22848   22866   22875       1   22869   22878  -22884   22875       1
   22866   22848   22869   22878       1   22866   22875  -22884   22878       1
   22848   22866   22875   22884       1   22848   22869  -22878   22884       1
   22845   22866   22848   22869       1   22845   22866   22875   22884       1
   22833   22812   22830   22845       1   22833   22848  -22866   22845       1
   22833   22848   22866   22875       1   22833   22848   22869   22878       1
   22830   22812   22833   22848       1   22830   22845  -22866   22848       1
   22830   22845   22866   22875       1   22821   22800   22818   22836       1
   22821   22842  -22854   22836       1   22818   22800   22821   22842       1
   22818   22836  -22854   22842       1   22812   22830   22845   22866       1
   22812   22833  -22848   22866       1   22812   22833   22848   22869       1
   22809   22794   22806   22821       1   22809   22830   22812   22833       1
   22809   22830   22845   22866       1   22806   22794   22809   22830       1
   22806   22821   22800   22818       1   22806   22821   22842   22854       1
   22800   22818   22836   22854       1   22800   22821  -22842   22854       1
   22797   22788   22791   22800       1   22797   22788   22794   22806       1
   22797   22788   22794   22809       1   22797   22812  -22830   22809       1
   22797   22812   22830   22845       1   22797   22812   22833   22848       1
   22794   22788   22791   22800       1   22794   22788   22797   22812       1
   22794   22806  -22821   22800       1   22794   22806   22821   22842       1
   22794   22809  -22830   22812       1   22794   22809   22830   22845       1
   22791   22788   22794   22806       1   22791   22788   22794   22809       1
   22791   22788   22797   22812       1   22791   22800   22818   22836       1
   22791   22800  -22821   22806       1   22791   22800   22821   22842       1
   22788   22791   22800   22818       1   22788   22791   22800   22821       1
   22788   22794  -22806   22821       1   22788   22794   22809   22830       1
   22788   22797  -22812   22830       1   22788   22797   22812   22833       1
   22977   22956   22974   22983       1   22977   22986  -22992   22983       1
   22974   22956   22977   22986       1   22974   22983  -22992   22986       1
   22956   22974   22983   22992       1   22956   22977  -22986   22992       1
   22953   22974   22956   22977       1   22953   22974   22983   22992       1
   22941   22920   22938   22953       1   22941   22956  -22974   22953       1
   22941   22956   22974   22983       1   22941   22956   22977   22986       1
   22938   22920   22941   22956       1   22938   22953  -22974   22956       1
   22938   22953   22974   22983       1   22929   22908   22926   22944       1
   22929   22950  -22962   22944       1   22926   22908   22929   22950       1
   22926   22944  -22962   22950       1   22920   22938   22953   22974       1
   22920   22941  -22956   22974       1   22920   22941   22956   22977       1
   22917   22902   22914   22929       1   22917   22938   22920   22941       1
   22917   22938   22953   22974       1   22914   22902   22917   22938       1
   22914   22929   22908   22926       1   22914   22929   22950   22962       1
   22908   22926   22944   22962       1   22908   22929  -22950   22962       1
   22905   22896   22899   22908       1   22905   22896   22902   22914       1
   22905   22896   22902   22917       1   22905   22920  -22938   22917       1
   22905   22920   22938   22953       1   22905   22920   22941   22956       1
   22902   22896   22899   22908       1   22902   22896   22905   22920       1
   22902   22914  -22929   22908       1   22902   22914   22929   22950       1
   22902   22917  -22938   22920       1   22902   22917   22938   22953       1
   22899   22896   22902   22914       1   22899   22896   22902   22917       1
   22899   22896   22905   22920       1   22899   22908   22926   22944       1
   22899   22908  -22929   22914       1   22899   22908   22929   22950       1
   22896   22899   22908   22926       1   22896   22899   22908   22929       1
   22896   22902  -22914   22929       1   22896   22902   22917   22938       1
   22896   22905  -22920   22938       1   22896   22905   22920   22941       1
   23085   23064   23082   23091       1   23085   23094  -23100   23091       1
   23082   23064   23085   23094       1   23082   23091  -23100   23094       1
   23064   23082   23091   23100       1   23064   23085  -23094   23100       1
   23061   23082   23064   23085       1   23061   23082   23091   23100       1
   23049   23028   23046   23061       1   23049   23064  -23082   23061       1
   23049   23064   23082   23091       1   23049   23064   23085   23094       1
   23046   23028   23049   23064       1   23046   23061  -23082   23064       1
   23046   23061   23082   23091       1   23037   23016   23034   23052       1
   23037   23058  -23070   23052       1   23034   23016   23037   23058       1
   23034   23052  -23070   23058       1   23028   23046   23061   23082       1
   23028   23049  -23064   23082       1   23028   23049   23064   23085       1
   23025   23010   23022   23037       1   23025   23046   23028   23049       1
   23025   23046   23061   23082       1   23022   23010   23025   23046       1
   23022   23037   23016   23034       1   23022   23037   23058   23070       1
   23016   23034   23052   23070       1   23016   23037  -23058   23070       1
   23013   23004   23007   23016       1   23013   23004   23010   23022       1
   23013   23004   23010   23025       1   23013   23028  -23046   23025       1
   23013   23028   23046   23061       1   23013   23028   23049   23064       1
   23010   23004   23007   23016       1   23010   23004   23013   23028       1
   23010   23022  -23037   23016       1   23010   23022   23037   23058       1
   23010   23025  -23046   23028       1   23010   23025   23046   23061       1
   23007   23004   23010   23022       1   23007   23004   23010   23025       1
   23007   23004   23013   23028       1   23007   23016   23034   23052       1
   23007   23016  -23037   23022       1   23007   23016   23037   23058       1
   23004   23007   23016   23034       1   23004   23007   23016   23037       1
   23004   23010  -23022   23037       1   23004   23010   23025   23046       1
   23004   23013  -23028   23046       1   23004   23013   23028   23049       1
   23193   23172   23190   23199       1   23193   23202  -23208   23199       1
   23190   23172   23193   23202       1   23190   23199  -23208   23202       1
   23172   23190   23199   23208       1   23172   23193  -23202   23208       1
   23169   23190   23172   23193       1   23169   23190   23199   23208       1
   23157   23136   23154   23169       1   23157   23172  -23190   23169       1
   23157   23172   23190   23199       1   23157   23172   23193   23202       1
   23154   23136   23157   23172       1   23154   23169  -23190   23172       1
   23154   23169   23190   23199       1   23145   23124   23142   23160       1
   23145   23166  -23178   23160       1   23142   23124   23145   23166       1
   23142   23160  -23178   23166       1   23136   23154   23169   23190       1
   23136   23157  -23172   23190       1   23136   23157   23172   23193       1
   23133   23118   23130   23145       1   23133   23154   23136   23157       1
   23133   23154   23169   23190       1   23130   23118   23133   23154       1
   23130   23145   23124   23142       1   23130   23145   23166   23178       1
   23124   23142   23160   23178       1   23124   23145  -23166   23178       1
   23121   23112   23115   23124       1   23121   23112   23118   23130       1
   23121   23112   23118   23133       1   23121   23136  -23154   23133       1
   23121   23136   23154   23169       1   23121   23136   23157   23172       1
   23118   23112   23115   23124       1   23118   23112   23121   23136       1
   23118   23130  -23145   23124       1   23118   23130   23145   23166       1
   23118   23133  -23154   23136       1   23118   23133   23154   23169       1
   23115   23112   23118   23130       1   23115   23112   23118   23133       1
   23115   23112   23121   23136       1   23115   23124   23142   23160       1
   23115   23124  -23145   23130       1   23115   23124   23145   23166       1
   23112   23115   23124   23142       1   23112   23115   23124   23145       1
   23112   23118  -23130   23145       1   23112   23118   23133   23154       1
   23112   23121  -23136   23154       1   23112   23121   23136   23157       1
   23301   23280   23298   23307       1   23301   23310  -23316   23307       1
   23298   23280   23301   23310       1   23298   23307  -23316   23310       1
   23280   23298   23307   23316       1   23280   23301  -23310   23316       1
   23277   23298   23280   23301       1   23277   23298   23307   23316       1
   23265   23244   23262   23277       1   23265   23280  -23298   23277       1
   23265   23280   23298   23307       1   23265   23280   23301   23310       1
   23262   23244   23265   23280       1   23262   23277  -23298   23280       1
   23262   23277   23298   23307       1   23253   23232   23250   23268       1
   23253   23274  -23286   23268       1   23250   23232   23253   23274       1
   23250   23268  -23286   23274       1   23244   23262   23277   23298       1
   23244   23265  -23280   23298       1   23244   23265   23280   23301       1
   23241   23226   23238   23253       1   23241   23262   23244   23265       1
   23241   23262   23277   23298       1   23238   23226   23241   23262       1
   23238   23253   23232   23250       1   23238   23253   23274   23286       1
   23232   23250   23268   23286       1   23232   23253  -23274   23286       1
   23229   23220   23223   23232       1   23229   23220   23226   23238       1
   23229   23220   23226   23241       1   23229   23244  -23262   23241       1
   23229   23244   23262   23277       1   23229   23244   23265   23280       1
   23226   23220   23223   23232       1   23226   23220   23229   23244       1
   23226   23238  -23253   23232       1   23226   23238   23253   23274       1
   23226   23241  -23262   23244       1   23226   23241   23262   23277       1
   23223   23220   23226   23238       1   23223   23220   23226   23241       1
   23223   23220   23229   23244       1   23223   23232   23250   23268       1
   23223   23232  -23253   23238       1   23223   23232   23253   23274       1
   23220   23223   23232   23250       1   23220   23223   23232   23253       1
   23220   23226  -23238   23253       1   23220   23226   23241   23262       1
   23220   23229  -23244   23262       1   23220   23229   23244   23265       1
   23409   23388   23406   23415       1   23409   23418  -23424   23415       1
   23406   23388   23409   23418       1   23406   23415  -23424   23418       1
   23388   23406   23415   23424       1   23388   23409  -23418   23424       1
   23385   23406   23388   23409       1   23385   23406   23415   23424       1
   23373   23352   23370   23385       1   23373   23388  -23406   23385       1
   23373   23388   23406   23415       1   23373   23388   23409   23418       1
   23370   23352   23373   23388       1   23370   23385  -23406   23388       1
   23370   23385   23406   23415       1   23361   23340   23358   23376       1
   23361   23382  -23394   23376       1   23358   23340   23361   23382       1
   23358   23376  -23394   23382       1   23352   23370   23385   23406       1
   23352   23373  -23388   23406       1   23352   23373   23388   23409       1
   23349   23334   23346   23361       1   23349   23370   23352   23373       1
   23349   23370   23385   23406       1   23346   23334   23349   23370       1
   23346   23361   23340   23358       1   23346   23361   23382   23394       1
   23340   23358   23376   23394       1   23340   23361  -23382   23394       1
   23337   23328   23331   23340       1   23337   23328   23334   23346       1
   23337   23328   23334   23349       1   23337   23352  -23370   23349       1
   23337   23352   23370   23385       1   23337   23352   23373   23388       1
   23334   23328   23331   23340       1   23334   23328   23337   23352       1
   23334   23346  -23361   23340       1   23334   23346   23361   23382       1
   23334   23349  -23370   23352       1   23334   23349   23370   23385       1
   23331   23328   23334   23346       1   23331   23328   23334   23349       1
   23331   23328   23337   23352       1   23331   23340   23358   23376       1
   23331   23340  -23361   23346       1   23331   23340   23361   23382       1
   23328   23331   23340   23358       1   23328   23331   23340   23361       1
   23328   23334  -23346   23361       1   23328   23334   23349   23370       1
   23328   23337  -23352   23370       1   23328   23337   23352   23373       1
   23517   23496   23514   23523       1   23517   23526  -23532   23523       1
   23514   23496   23517   23526       1   23514   23523  -23532   23526       1
   23496   23514   23523   23532       1   23496   23517  -23526   23532       1
   23493   23514   23496   23517       1   23493   23514   23523   23532       1
   23481   23460   23478   23493       1   23481   23496  -23514   23493       1
   23481   23496   23514   23523       1   23481   23496   23517   23526       1
   23478   23460   23481   23496       1   23478   23493  -23514   23496       1
   23478   23493   23514   23523       1   23469   23448   23466   23484       1
   23469   23490  -23502   23484       1   23466   23448   23469   23490       1
   23466   23484  -23502   23490       1   23460   23478   23493   23514       1
   23460   23481  -23496   23514       1   23460   23481   23496   23517       1
   23457   23442   23454   23469       1   23457   23478   23460   23481       1
   23457   23478   23493   23514       1   23454   23442   23457   23478       1
   23454   23469   23448   23466       1   23454   23469   23490   23502       1
   23448   23466   23484   23502       1   23448   23469  -23490   23502       1
   23445   23436   23439   23448       1   23445   23436   23442   23454       1
   23445   23436   23442   23457       1   23445   23460  -23478   23457       1
   23445   23460   23478   23493       1   23445   23460   23481   23496       1
   23442   23436   23439   23448       1   23442   23436   23445   23460       1
   23442   23454  -23469   23448       1   23442   23454   23469   23490       1
   23442   23457  -23478   23460       1   23442   23457   23478   23493       1
   23439   23436   23442   23454       1   23439   23436   23442   23457       1
   23439   23436   23445   23460       1   23439   23448   23466   23484       1
   23439   23448  -23469   23454       1   23439   23448   23469   23490       1
   23436   23439   23448   23466       1   23436   23439   23448   23469       1
   23436   23442  -23454   23469       1   23436   23442   23457   23478       1
   23436   23445  -23460   23478       1   23436   23445   23460   23481       1
   23625   23604   23622   23631       1   23625   23634  -23640   23631       1
   23622   23604   23625   23634       1   23622   23631  -23640   23634       1
   23604   23622   23631   23640       1   23604   23625  -23634   23640       1
   23601   23622   23604   23625       1   23601   23622   23631   23640       1
   23589   23568   23586   23601       1   23589   23604  -23622   23601       1
   23589   23604   23622   23631       1   23589   23604   23625   23634       1
   23586   23568   23589   23604       1   23586   23601  -23622   23604       1
   23586   23601   23622   23631       1   23577   23556   23574   23592       1
   23577   23598  -23610   23592       1   23574   23556   23577   23598       1
   23574   23592  -23610   23598       1   23568   23586   23601   23622       1
   23568   23589  -23604   23622       1   23568   23589   23604   23625       1
   23565   23550   23562   23577       1   23565   23586   23568   23589       1
   23565   23586   23601   23622       1   23562   23550   23565   23586       1
   23562   23577   23556   23574       1   23562   23577   23598   23610       1
   23556   23574   23592   23610       1   23556   23577  -23598   23610       1
   23553   23544   23547   23556       1   23553   23544   23550   23562       1
   23553   23544   23550   23565       1   23553   23568  -23586   23565       1
   23553   23568   23586   23601       1   23553   23568   23589   23604       1
   23550   23544   23547   23556       1   23550   23544   23553   23568       1
   23550   23562  -23577   23556       1   23550   23562   23577   23598       1
   23550   23565  -23586   23568       1   23550   23565   23586   23601       1
   23547   23544   23550   23562       1   23547   23544   23550   23565       1
   23547   23544   23553   23568       1   23547   23556   23574   23592       1
   23547   23556  -23577   23562       1   23547   23556   23577   23598       1
   23544   23547   23556   23574       1   23544   23547   23556   23577       1
   23544   23550  -23562   23577       1   23544   23550   23565   23586       1
   23544   23553  -23568   23586       1   23544   23553   23568   23589       1
   23733   23712   23730   23739       1   23733   23742  -23748   23739       1
   23730   23712   23733   23742       1   23730   23739  -23748   23742       1
   23712   23730   23739   23748       1   23712   23733  -23742   23748       1
   23709   23730   23712   23733       1   23709   23730   23739   23748       1
   23697   23676   23694   23709       1   23697   23712  -23730   23709       1
   23697   23712   23730   23739       1   23697   23712   23733   23742       1
   23694   23676   23697   23712       1   23694   23709  -23730   23712       1
   23694   23709   23730   23739       1   23685   23664   23682   23700       1
   23685   23706  -23718   23700       1   23682   23664   23685   23706       1
   23682   23700  -23718   23706       1   23676   23694   23709   23730       1
   23676   23697  -23712   23730       1   23676   23697   23712   23733       1
   23673   23658   23670   23685       1   23673   23694   23676   23697       1
   23673   23694   23709   23730       1   23670   23658   23673   23694       1
   23670   23685   23664   23682       1   23670   23685   23706   23718       1
   23664   23682   23700   23718       1   23664   23685  -23706   23718       1
   23661   23652   23655   23664       1   23661   23652   23658   23670       1
   23661   23652   23658   23673       1   23661   23676  -23694   23673       1
   23661   23676   23694   23709       1   23661   23676   23697   23712       1
   23658   23652   23655   23664       1   23658   23652   23661   23676       1
   23658   23670  -23685   23664       1   23658   23670   23685   23706       1
   23658   23673  -23694   23676       1   23658   23673   23694   23709       1
   23655   23652   23658   23670       1   23655   23652   23658   23673       1
   23655   23652   23661   23676       1   23655   23664   23682   23700       1
   23655   23664  -23685   23670       1   23655   23664   23685   23706       1
   23652   23655   23664   23682       1   23652   23655   23664   23685       1
   23652   23658  -23670   23685       1   23652   23658   23673   23694       1
   23652   23661  -23676   23694       1   23652   23661   23676   23697       1
   23841   23820   23838   23847       1   23841   23850  -23856   23847       1
   23838   23820   23841   23850       1   23838   23847  -23856   23850       1
   23820   23838   23847   23856       1   23820   23841  -23850   23856       1
   23817   23838   23820   23841       1   23817   23838   23847   23856       1
   23805   23784   23802   23817       1   23805   23820  -23838   23817       1
   23805   23820   23838   23847       1   23805   23820   23841   23850       1
   23802   23784   23805   23820       1   23802   23817  -23838   23820       1
   23802   23817   23838   23847       1   23793   23772   23790   23808       1
   23793   23814  -23826   23808       1   23790   23772   23793   23814       1
   23790   23808  -23826   23814       1   23784   23802   23817   23838       1
   23784   23805  -23820   23838       1   23784   23805   23820   23841       1
   23781   23766   23778   23793       1   23781   23802   23784   23805       1
   23781   23802   23817   23838       1   23778   23766   23781   23802       1
   23778   23793   23772   23790       1   23778   23793   23814   23826       1
   23772   23790   23808   23826       1   23772   23793  -23814   23826       1
   23769   23760   23763   23772       1   23769   23760   23766   23778       1
   23769   23760   23766   23781       1   23769   23784  -23802   23781       1
   23769   23784   23802   23817       1   23769   23784   23805   23820       1
   23766   23760   23763   23772       1   23766   23760   23769   23784       1
   23766   23778  -23793   23772       1   23766   23778   23793   23814       1
   23766   23781  -23802   23784       1   23766   23781   23802   23817       1
   23763   23760   23766   23778       1   23763   23760   23766   23781       1
   23763   23760   23769   23784       1   23763   23772   23790   23808       1
   23763   23772  -23793   23778       1   23763   23772   23793   23814       1
   23760   23763   23772   23790       1   23760   23763   23772   23793       1
   23760   23766  -23778   23793       1   23760   23766   23781   23802       1
   23760   23769  -23784   23802       1   23760   23769   23784   23805       1
   23949   23928   23946   23955       1   23949   23958  -23964   23955       1
   23946   23928   23949   23958       1   23946   23955  -23964   23958       1
   23928   23946   23955   23964       1   23928   23949  -23958   23964       1
   23925   23946   23928   23949       1   23925   23946   23955   23964       1
   23913   23892   23910   23925       1   23913   23928  -23946   23925       1
   23913   23928   23946   23955       1   23913   23928   23949   23958       1
   23910   23892   23913   23928       1   23910   23925  -23946   23928       1
   23910   23925   23946   23955       1   23901   23880   23898   23916       1
   23901   23922  -23934   23916       1   23898   23880   23901   23922       1
   23898   23916  -23934   23922       1   23892   23910   23925   23946       1
   23892   23913  -23928   23946       1   23892   23913   23928   23949       1
   23889   23874   23886   23901       1   23889   23910   23892   23913       1
   23889   23910   23925   23946       1   23886   23874   23889   23910       1
   23886   23901   23880   23898       1   23886   23901   23922   23934       1
   23880   23898   23916   23934       1   23880   23901  -23922   23934       1
   23877   23868   23871   23880       1   23877   23868   23874   23886       1
   23877   23868   23874   23889       1   23877   23892  -23910   23889       1
   23877   23892   23910   23925       1   23877   23892   23913   23928       1
   23874   23868   23871   23880       1   23874   23868   23877   23892       1
   23874   23886  -23901   23880       1   23874   23886   23901   23922       1
   23874   23889  -23910   23892       1   23874   23889   23910   23925       1
   23871   23868   23874   23886       1   23871   23868   23874   23889       1
   23871   23868   23877   23892       1   23871   23880   23898   23916       1
   23871   23880  -23901   23886       1   23871   23880   23901   23922       1
   23868   23871   23880   23898       1   23868   23871   23880   23901       1
   23868   23874  -23886   23901       1   23868   23874   23889   23910       1
   23868   23877  -23892   23910       1   23868   23877   23892   23913       1
   24057   24036   24054   24063       1   24057   24066  -24072   24063       1
   24054   24036   24057   24066       1   24054   24063  -24072   24066       1
   24036   24054   24063   24072       1   24036   24057  -24066   24072       1
   24033   24054   24036   24057       1   24033   24054   24063   24072       1
   24021   24000   24018   24033       1   24021   24036  -24054   24033       1
   24021   24036   24054   24063       1   24021   24036   24057   24066       1
   24018   24000   24021   24036       1   24018   24033  -24054   24036       1
   24018   24033   24054   24063       1   24009   23988   24006   24024       1
   24009   24030  -24042   24024       1   24006   23988   24009   24030       1
   24006   24024  -24042   24030       1   24000   24018   24033   24054       1
   24000   24021  -24036   24054       1   24000   24021   24036   24057       1
   23997   23982   23994   24009       1   23997   24018   24000   24021       1
   23997   24018   24033   24054       1   23994   23982   23997   24018       1
   23994   24009   23988   24006       1   23994   24009   24030   24042       1
   23988   24006   24024   24042       1   23988   24009  -24030   24042       1
   23985   23976   23979   23988       1   23985   23976   23982   23994       1
   23985   23976   23982   23997       1   23985   24000  -24018   23997       1
   23985   24000   24018   24033       1   23985   24000   24021   24036       1
   23982   23976   23979   23988       1   23982   23976   23985   24000       1
   23982   23994  -24009   23988       1   23982   23994   24009   24030       1
   23982   23997  -24018   24000       1   23982   23997   24018   24033       1
   23979   23976   23982   23994       1   23979   23976   23982   23997       1
   23979   23976   23985   24000       1   23979   23988   24006   24024       1
   23979   23988  -24009   23994       1   23979   23988   24009   24030       1
   23976   23979   23988   24006       1   23976   23979   23988   24009       1
   23976   23982  -23994   24009       1   23976   23982   23997   24018       1
   23976   23985  -24000   24018       1   23976   23985   24000   24021       1
   24165   24144   24162   24171       1   24165   24174  -24180   24171       1
   24162   24144   24165   24174       1   24162   24171  -24180   24174       1
   24144   24162   24171   24180       1   24144   24165  -24174   24180       1
   24141   24162   24144   24165       1   24141   24162   24171   24180       1
   24129   24108   24126   24141       1   24129   24144  -24162   24141       1
   24129   24144   24162   24171       1   24129   24144   24165   24174       1
   24126   24108   24129   24144       1   24126   24141  -24162   24144       1
   24126   24141   24162   24171       1   24117   24096   24114   24132       1
   24117   24138  -24150   24132       1   24114   24096   24117   24138       1
   24114   24132  -24150   24138       1   24108   24126   24141   24162       1
   24108   24129  -24144   24162       1   24108   24129   24144   24165       1
   24105   24090   24102   24117       1   24105   24126   24108   24129       1
   24105   24126   24141   24162       1   24102   24090   24105   24126       1
   24102   24117   24096   24114       1   24102   24117   24138   24150       1
   24096   24114   24132   24150       1   24096   24117  -24138   24150       1
   24093   24084   24087   24096       1   24093   24084   24090   24102       1
   24093   24084   24090   24105       1   24093   24108  -24126   24105       1
   24093   24108   24126   24141       1   24093   24108   24129   24144       1
   24090   24084   24087   24096       1   24090   24084   24093   24108       1
   24090   24102  -24117   24096       1   24090   24102   24117   24138       1
   24090   24105  -24126   24108       1   24090   24105   24126   24141       1
   24087   24084   24090   24102       1   24087   24084   24090   24105       1
   24087   24084   24093   24108       1   24087   24096   24114   24132       1
   24087   24096  -24117   24102       1   24087   24096   24117   24138       1
   24084   24087   24096   24114       1   24084   24087   24096   24117       1
   24084   24090  -24102   24117       1   24084   24090   24105   24126       1
   24084   24093  -24108   24126       1   24084   24093   24108   24129       1
   24273   24252   24270   24279       1   24273   24282  -24288   24279       1
   24270   24252   24273   24282       1   24270   24279  -24288   24282       1
   24252   24270   24279   24288       1   24252   24273  -24282   24288       1
   24249   24270   24252   24273       1   24249   24270   24279   24288       1
   24237   24216   24234   24249       1   24237   24252  -24270   24249       1
   24237   24252   24270   24279       1   24237   24252   24273   24282       1
   24234   24216   24237   24252       1   24234   24249  -24270   24252       1
   24234   24249   24270   24279       1   24225   24204   24222   24240       1
   24225   24246  -24258   24240       1   24222   24204   24225   24246       1
   24222   24240  -24258   24246       1   24216   24234   24249   24270       1
   24216   24237  -24252   24270       1   24216   24237   24252   24273       1
   24213   24198   24210   24225       1   24213   24234   24216   24237       1
   24213   24234   24249   24270       1   24210   24198   24213   24234       1
   24210   24225   24204   24222       1   24210   24225   24246   24258       1
   24204   24222   24240   24258       1   24204   24225  -24246   24258       1
   24201   24192   24195   24204       1   24201   24192   24198   24210       1
   24201   24192   24198   24213       1   24201   24216  -24234   24213       1
   24201   24216   24234   24249       1   24201   24216   24237   24252       1
   24198   24192   24195   24204       1   24198   24192   24201   24216       1
   24198   24210  -24225   24204       1   24198   24210   24225   24246       1
   24198   24213  -24234   24216       1   24198   24213   24234   24249       1
   24195   24192   24198   24210       1   24195   24192   24198   24213       1
   24195   24192   24201   24216       1   24195   24204   24222   24240       1
   24195   24204  -24225   24210       1   24195   24204   24225   24246       1
   24192   24195   24204   24222       1   24192   24195   24204   24225       1
   24192   24198  -24210   24225       1   24192   24198   24213   24234       1
   24192   24201  -24216   24234       1   24192   24201   24216   24237       1
   24381   24360   24378   24387       1   24381   24390  -24396   24387       1
   24378   24360   24381   24390       1   24378   24387  -24396   24390       1
   24360   24378   24387   24396       1   24360   24381  -24390   24396       1
   24357   24378   24360   24381       1   24357   24378   24387   24396       1
   24345   24324   24342   24357       1   24345   24360  -24378   24357       1
   24345   24360   24378   24387       1   24345   24360   24381   24390       1
   24342   24324   24345   24360       1   24342   24357  -24378   24360       1
   24342   24357   24378   24387       1   24333   24312   24330   24348       1
   24333   24354  -24366   24348       1   24330   24312   24333   24354       1
   24330   24348  -24366   24354       1   24324   24342   24357   24378       1
   24324   24345  -24360   24378       1   24324   24345   24360   24381       1
   24321   24306   24318   24333       1   24321   24342   24324   24345       1
   24321   24342   24357   24378       1   24318   24306   24321   24342       1
   24318   24333   24312   24330       1   24318   24333   24354   24366       1
   24312   24330   24348   24366       1   24312   24333  -24354   24366       1
   24309   24300   24303   24312       1   24309   24300   24306   24318       1
   24309   24300   24306   24321       1   24309   24324  -24342   24321       1
   24309   24324   24342   24357       1   24309   24324   24345   24360       1
   24306   24300   24303   24312       1   24306   24300   24309   24324       1
   24306   24318  -24333   24312       1   24306   24318   24333   24354       1
   24306   24321  -24342   24324       1   24306   24321   24342   24357       1
   24303   24300   24306   24318       1   24303   24300   24306   24321       1
   24303   24300   24309   24324       1   24303   24312   24330   24348       1
   24303   24312  -24333   24318       1   24303   24312   24333   24354       1
   24300   24303   24312   24330       1   24300   24303   24312   24333       1
   24300   24306  -24318   24333       1   24300   24306   24321   24342       1
   24300   24309  -24324   24342       1   24300   24309   24324   24345       1
   24489   24468   24486   24495       1   24489   24498  -24504   24495       1
   24486   24468   24489   24498       1   24486   24495  -24504   24498       1
   24468   24486   24495   24504       1   24468   24489  -24498   24504       1
   24465   24486   24468   24489       1   24465   24486   24495   24504       1
   24453   24432   24450   24465       1   24453   24468  -24486   24465       1
   24453   24468   24486   24495       1   24453   24468   24489   24498       1
   24450   24432   24453   24468       1   24450   24465  -24486   24468       1
   24450   24465   24486   24495       1   24441   24420   24438   24456       1
   24441   24462  -24474   24456       1   24438   24420   24441   24462       1
   24438   24456  -24474   24462       1   24432   24450   24465   24486       1
   24432   24453  -24468   24486       1   24432   24453   24468   24489       1
   24429   24414   24426   24441       1   24429   24450   24432   24453       1
   24429   24450   24465   24486       1   24426   24414   24429   24450       1
   24426   24441   24420   24438       1   24426   24441   24462   24474       1
   24420   24438   24456   24474       1   24420   24441  -24462   24474       1
   24417   24408   24411   24420       1   24417   24408   24414   24426       1
   24417   24408   24414   24429       1   24417   24432  -24450   24429       1
   24417   24432   24450   24465       1   24417   24432   24453   24468       1
   24414   24408   24411   24420       1   24414   24408   24417   24432       1
   24414   24426  -24441   24420       1   24414   24426   24441   24462       1
   24414   24429  -24450   24432       1   24414   24429   24450   24465       1
   24411   24408   24414   24426       1   24411   24408   24414   24429       1
   24411   24408   24417   24432       1   24411   24420   24438   24456       1
   24411   24420  -24441   24426       1   24411   24420   24441   24462       1
   24408   24411   24420   24438       1   24408   24411   24420   24441       1
   24408   24414  -24426   24441       1   24408   24414   24429   24450       1
   24408   24417  -24432   24450       1   24408   24417   24432   24453       1
   24597   24576   24594   24603       1   24597   24606  -24612   24603       1
   24594   24576   24597   24606       1   24594   24603  -24612   24606       1
   24576   24594   24603   24612       1   24576   24597  -24606   24612       1
   24573   24594   24576   24597       1   24573   24594   24603   24612       1
   24561   24540   24558   24573       1   24561   24576  -24594   24573       1
   24561   24576   24594   24603       1   24561   24576   24597   24606       1
   24558   24540   24561   24576       1   24558   24573  -24594   24576       1
   24558   24573   24594   24603       1   24549   24528   24546   24564       1
   24549   24570  -24582   24564       1   24546   24528   24549   24570       1
   24546   24564  -24582   24570       1   24540   24558   24573   24594       1
   24540   24561  -24576   24594       1   24540   24561   24576   24597       1
   24537   24522   24534   24549       1   24537   24558   24540   24561       1
   24537   24558   24573   24594       1   24534   24522   24537   24558       1
   24534   24549   24528   24546       1   24534   24549   24570   24582       1
   24528   24546   24564   24582       1   24528   24549  -24570   24582       1
   24525   24516   24519   24528       1   24525   24516   24522   24534       1
   24525   24516   24522   24537       1   24525   24540  -24558   24537       1
   24525   24540   24558   24573       1   24525   24540   24561   24576       1
   24522   24516   24519   24528       1   24522   24516   24525   24540       1
   24522   24534  -24549   24528       1   24522   24534   24549   24570       1
   24522   24537  -24558   24540       1   24522   24537   24558   24573       1
   24519   24516   24522   24534       1   24519   24516   24522   24537       1
   24519   24516   24525   24540       1   24519   24528   24546   24564       1
   24519   24528  -24549   24534       1   24519   24528   24549   24570       1
   24516   24519   24528   24546       1   24516   24519   24528   24549       1
   24516   24522  -24534   24549       1   24516   24522   24537   24558       1
   24516   24525  -24540   24558       1   24516   24525   24540   24561       1
   24705   24684   24702   24711       1   24705   24714  -24720   24711       1
   24702   24684   24705   24714       1   24702   24711  -24720   24714       1
   24684   24702   24711   24720       1   24684   24705  -24714   24720       1
   24681   24702   24684   24705       1   24681   24702   24711   24720       1
   24669   24648   24666   24681       1   24669   24684  -24702   24681       1
   24669   24684   24702   24711       1   24669   24684   24705   24714       1
   24666   24648   24669   24684       1   24666   24681  -24702   24684       1
   24666   24681   24702   24711       1   24657   24636   24654   24672       1
   24657   24678  -24690   24672       1   24654   24636   24657   24678       1
   24654   24672  -24690   24678       1   24648   24666   24681   24702       1
   24648   24669  -24684   24702       1   24648   24669   24684   24705       1
   24645   24630   24642   24657       1   24645   24666   24648   24669       1
   24645   24666   24681   24702       1   24642   24630   24645   24666       1
   24642   24657   24636   24654       1   24642   24657   24678   24690       1
   24636   24654   24672   24690       1   24636   24657  -24678   24690       1
   24633   24624   24627   24636       1   24633   24624   24630   24642       1
   24633   24624   24630   24645       1   24633   24648  -24666   24645       1
   24633   24648   24666   24681       1   24633   24648   24669   24684       1
   24630   24624   24627   24636       1   24630   24624   24633   24648       1
   24630   24642  -24657   24636       1   24630   24642   24657   24678       1
   24630   24645  -24666   24648       1   24630   24645   24666   24681       1
   24627   24624   24630   24642       1   24627   24624   24630   24645       1
   24627   24624   24633   24648       1   24627   24636   24654   24672       1
   24627   24636  -24657   24642       1   24627   24636   24657   24678       1
   24624   24627   24636   24654       1   24624   24627   24636   24657       1
   24624   24630  -24642   24657       1   24624   24630   24645   24666       1
   24624   24633  -24648   24666       1   24624   24633   24648   24669       1
   24813   24792   24810   24819       1   24813   24822  -24828   24819       1
   24810   24792   24813   24822       1   24810   24819  -24828   24822       1
   24792   24810   24819   24828       1   24792   24813  -24822   24828       1
   24789   24810   24792   24813       1   24789   24810   24819   24828       1
   24777   24756   24774   24789       1   24777   24792  -24810   24789       1
   24777   24792   24810   24819       1   24777   24792   24813   24822       1
   24774   24756   24777   24792       1   24774   24789  -24810   24792       1
   24774   24789   24810   24819       1   24765   24744   24762   24780       1
   24765   24786  -24798   24780       1   24762   24744   24765   24786       1
   24762   24780  -24798   24786       1   24756   24774   24789   24810       1
   24756   24777  -24792   24810       1   24756   24777   24792   24813       1
   24753   24738   24750   24765       1   24753   24774   24756   24777       1
   24753   24774   24789   24810       1   24750   24738   24753   24774       1
   24750   24765   24744   24762       1   24750   24765   24786   24798       1
   24744   24762   24780   24798       1   24744   24765  -24786   24798       1
   24741   24732   24735   24744       1   24741   24732   24738   24750       1
   24741   24732   24738   24753       1   24741   24756  -24774   24753       1
   24741   24756   24774   24789       1   24741   24756   24777   24792       1
   24738   24732   24735   24744       1   24738   24732   24741   24756       1
   24738   24750  -24765   24744       1   24738   24750   24765   24786       1
   24738   24753  -24774   24756       1   24738   24753   24774   24789       1
   24735   24732   24738   24750       1   24735   24732   24738   24753       1
   24735   24732   24741   24756       1   24735   24744   24762   24780       1
   24735   24744  -24765   24750       1   24735   24744   24765   24786       1
   24732   24735   24744   24762       1   24732   24735   24744   24765       1
   24732   24738  -24750   24765       1   24732   24738   24753   24774       1
   24732   24741  -24756   24774       1   24732   24741   24756   24777       1
   24921   24900   24918   24927       1   24921   24930  -24936   24927       1
   24918   24900   24921   24930       1   24918   24927  -24936   24930       1
   24900   24918   24927   24936       1   24900   24921  -24930   24936       1
   24897   24918   24900   24921       1   24897   24918   24927   24936       1
   24885   24864   24882   24897       1   24885   24900  -24918   24897       1
   24885   24900   24918   24927       1   24885   24900   24921   24930       1
   24882   24864   24885   24900       1   24882   24897  -24918   24900       1
   24882   24897   24918   24927       1   24873   24852   24870   24888       1
   24873   24894  -24906   24888       1   24870   24852   24873   24894       1
   24870   24888  -24906   24894       1   24864   24882   24897   24918       1
   24864   24885  -24900   24918       1   24864   24885   24900   24921       1
   24861   24846   24858   24873       1   24861   24882   24864   24885       1
   24861   24882   24897   24918       1   24858   24846   24861   24882       1
   24858   24873   24852   24870       1   24858   24873   24894   24906       1
   24852   24870   24888   24906       1   24852   24873  -24894   24906       1
   24849   24840   24843   24852       1   24849   24840   24846   24858       1
   24849   24840   24846   24861       1   24849   24864  -24882   24861       1
   24849   24864   24882   24897       1   24849   24864   24885   24900       1
   24846   24840   24843   24852       1   24846   24840   24849   24864       1
   24846   24858  -24873   24852       1   24846   24858   24873   24894       1
   24846   24861  -24882   24864       1   24846   24861   24882   24897       1
   24843   24840   24846   24858       1   24843   24840   24846   24861       1
   24843   24840   24849   24864       1   24843   24852   24870   24888       1
   24843   24852  -24873   24858       1   24843   24852   24873   24894       1
   24840   24843   24852   24870       1   24840   24843   24852   24873       1
   24840   24846  -24858   24873       1   24840   24846   24861   24882       1
   24840   24849  -24864   24882       1   24840   24849   24864   24885       1
   25029   25008   25026   25035       1   25029   25038  -25044   25035       1
   25026   25008   25029   25038       1   25026   25035  -25044   25038       1
   25008   25026   25035   25044       1   25008   25029  -25038   25044       1
   25005   25026   25008   25029       1   25005   25026   25035   25044       1
   24993   24972   24990   25005       1   24993   25008  -25026   25005       1
   24993   25008   25026   25035       1   24993   25008   25029   25038       1
   24990   24972   24993   25008       1   24990   25005  -25026   25008       1
   24990   25005   25026   25035       1   24981   24960   24978   24996       1
   24981   25002  -25014   24996       1   24978   24960   24981   25002       1
   24978   24996  -25014   25002       1   24972   24990   25005   25026       1
   24972   24993  -25008   25026       1   24972   24993   25008   25029       1
   24969   24954   24966   24981       1   24969   24990   24972   24993       1
   24969   24990   25005   25026       1   24966   24954   24969   24990       1
   24966   24981   24960   24978       1   24966   24981   25002   25014       1
   24960   24978   24996   25014       1   24960   24981  -25002   25014       1
   24957   24948   24951   24960       1   24957   24948   24954   24966       1
   24957   24948   24954   24969       1   24957   24972  -24990   24969       1
   24957   24972   24990   25005       1   24957   24972   24993   25008       1
   24954   24948   24951   24960       1   24954   24948   24957   24972       1
   24954   24966  -24981   24960       1   24954   24966   24981   25002       1
   24954   24969  -24990   24972       1   24954   24969   24990   25005       1
   24951   24948   24954   24966       1   24951   24948   24954   24969       1
   24951   24948   24957   24972       1   24951   24960   24978   24996       1
   24951   24960  -24981   24966       1   24951   24960   24981   25002       1
   24948   24951   24960   24978       1   24948   24951   24960   24981       1
   24948   24954  -24966   24981       1   24948   24954   24969   24990       1
   24948   24957  -24972   24990       1   24948   24957   24972   24993       1
   25137   25116   25134   25143       1   25137   25146  -25152   25143       1
   25134   25116   25137   25146       1   25134   25143  -25152   25146       1
   25116   25134   25143   25152       1   25116   25137  -25146   25152       1
   25113   25134   25116   25137       1   25113   25134   25143   25152       1
   25101   25080   25098   25113       1   25101   25116  -25134   25113       1
   25101   25116   25134   25143       1   25101   25116   25137   25146       1
   25098   25080   25101   25116       1   25098   25113  -25134   25116       1
   25098   25113   25134   25143       1   25089   25068   25086   25104       1
   25089   25110  -25122   25104       1   25086   25068   25089   25110       1
   25086   25104  -25122   25110       1   25080   25098   25113   25134       1
   25080   25101  -25116   25134       1   25080   25101   25116   25137       1
   25077   25062   25074   25089       1   25077   25098   25080   25101       1
   25077   25098   25113   25134       1   25074   25062   25077   25098       1
   25074   25089   25068   25086       1   25074   25089   25110   25122       1
   25068   25086   25104   25122       1   25068   25089  -25110   25122       1
   25065   25056   25059   25068       1   25065   25056   25062   25074       1
   25065   25056   25062   25077       1   25065   25080  -25098   25077       1
   25065   25080   25098   25113       1   25065   25080   25101   25116       1
   25062   25056   25059   25068       1   25062   25056   25065   25080       1
   25062   25074  -25089   25068       1   25062   25074   25089   25110       1
   25062   25077  -25098   25080       1   25062   25077   25098   25113       1
   25059   25056   25062   25074       1   25059   25056   25062   25077       1
   25059   25056   25065   25080       1   25059   25068   25086   25104       1
   25059   25068  -25089   25074       1   25059   25068   25089   25110       1
   25056   25059   25068   25086       1   25056   25059   25068   25089       1
   25056   25062  -25074   25089       1   25056   25062   25077   25098       1
   25056   25065  -25080   25098       1   25056   25065   25080   25101       1
   25245   25224   25242   25251       1   25245   25254  -25260   25251       1
   25242   25224   25245   25254       1   25242   25251  -25260   25254       1
   25224   25242   25251   25260       1   25224   25245  -25254   25260       1
   25221   25242   25224   25245       1   25221   25242   25251   25260       1
   25209   25188   25206   25221       1   25209   25224  -25242   25221       1
   25209   25224   25242   25251       1   25209   25224   25245   25254       1
   25206   25188   25209   25224       1   25206   25221  -25242   25224       1
   25206   25221   25242   25251       1   25197   25176   25194   25212       1
   25197   25218  -25230   25212       1   25194   25176   25197   25218       1
   25194   25212  -25230   25218       1   25188   25206   25221   25242       1
   25188   25209  -25224   25242       1   25188   25209   25224   25245       1
   25185   25170   25182   25197       1   25185   25206   25188   25209       1
   25185   25206   25221   25242       1   25182   25170   25185   25206       1
   25182   25197   25176   25194       1   25182   25197   25218   25230       1
   25176   25194   25212   25230       1   25176   25197  -25218   25230       1
   25173   25164   25167   25176       1   25173   25164   25170   25182       1
   25173   25164   25170   25185       1   25173   25188  -25206   25185       1
   25173   25188   25206   25221       1   25173   25188   25209   25224       1
   25170   25164   25167   25176       1   25170   25164   25173   25188       1
   25170   25182  -25197   25176       1   25170   25182   25197   25218       1
   25170   25185  -25206   25188       1   25170   25185   25206   25221       1
   25167   25164   25170   25182       1   25167   25164   25170   25185       1
   25167   25164   25173   25188       1   25167   25176   25194   25212       1
   25167   25176  -25197   25182       1   25167   25176   25197   25218       1
   25164   25167   25176   25194       1   25164   25167   25176   25197       1
   25164   25170  -25182   25197       1   25164   25170   25185   25206       1
   25164   25173  -25188   25206       1   25164   25173   25188   25209       1
   25353   25332   25350   25359       1   25353   25362  -25368   25359       1
   25350   25332   25353   25362       1   25350   25359  -25368   25362       1
   25332   25350   25359   25368       1   25332   25353  -25362   25368       1
   25329   25350   25332   25353       1   25329   25350   25359   25368       1
   25317   25296   25314   25329       1   25317   25332  -25350   25329       1
   25317   25332   25350   25359       1   25317   25332   25353   25362       1
   25314   25296   25317   25332       1   25314   25329  -25350   25332       1
   25314   25329   25350   25359       1   25305   25284   25302   25320       1
   25305   25326  -25338   25320       1   25302   25284   25305   25326       1
   25302   25320  -25338   25326       1   25296   25314   25329   25350       1
   25296   25317  -25332   25350       1   25296   25317   25332   25353       1
   25293   25278   25290   25305       1   25293   25314   25296   25317       1
   25293   25314   25329   25350       1   25290   25278   25293   25314       1
   25290   25305   25284   25302       1   25290   25305   25326   25338       1
   25284   25302   25320   25338       1   25284   25305  -25326   25338       1
   25281   25272   25275   25284       1   25281   25272   25278   25290       1
   25281   25272   25278   25293       1   25281   25296  -25314   25293       1
   25281   25296   25314   25329       1   25281   25296   25317   25332       1
   25278   25272   25275   25284       1   25278   25272   25281   25296       1
   25278   25290  -25305   25284       1   25278   25290   25305   25326       1
   25278   25293  -25314   25296       1   25278   25293   25314   25329       1
   25275   25272   25278   25290       1   25275   25272   25278   25293       1
   25275   25272   25281   25296       1   25275   25284   25302   25320       1
   25275   25284  -25305   25290       1   25275   25284   25305   25326       1
   25272   25275   25284   25302       1   25272   25275   25284   25305       1
   25272   25278  -25290   25305       1   25272   25278   25293   25314       1
   25272   25281  -25296   25314       1   25272   25281   25296   25317       1
   25461   25440   25458   25467       1   25461   25470  -25476   25467       1
   25458   25440   25461   25470       1   25458   25467  -25476   25470       1
   25440   25458   25467   25476       1   25440   25461  -25470   25476       1
   25437   25458   25440   25461       1   25437   25458   25467   25476       1
   25425   25404   25422   25437       1   25425   25440  -25458   25437       1
   25425   25440   25458   25467       1   25425   25440   25461   25470       1
   25422   25404   25425   25440       1   25422   25437  -25458   25440       1
   25422   25437   25458   25467       1   25413   25392   25410   25428       1
   25413   25434  -25446   25428       1   25410   25392   25413   25434       1
   25410   25428  -25446   25434       1   25404   25422   25437   25458       1
   25404   25425  -25440   25458       1   25404   25425   25440   25461       1
   25401   25386   25398   25413       1   25401   25422   25404   25425       1
   25401   25422   25437   25458       1   25398   25386   25401   25422       1
   25398   25413   25392   25410       1   25398   25413   25434   25446       1
   25392   25410   25428   25446       1   25392   25413  -25434   25446       1
   25389   25380   25383   25392       1   25389   25380   25386   25398       1
   25389   25380   25386   25401       1   25389   25404  -25422   25401       1
   25389   25404   25422   25437       1   25389   25404   25425   25440       1
   25386   25380   25383   25392       1   25386   25380   25389   25404       1
   25386   25398  -25413   25392       1   25386   25398   25413   25434       1
   25386   25401  -25422   25404       1   25386   25401   25422   25437       1
   25383   25380   25386   25398       1   25383   25380   25386   25401       1
   25383   25380   25389   25404       1   25383   25392   25410   25428       1
   25383   25392  -25413   25398       1   25383   25392   25413   25434       1
   25380   25383   25392   25410       1   25380   25383   25392   25413       1
   25380   25386  -25398   25413       1   25380   25386   25401   25422       1
   25380   25389  -25404   25422       1   25380   25389   25404   25425       1
   25569   25548   25566   25575       1   25569   25578  -25584   25575       1
   25566   25548   25569   25578       1   25566   25575  -25584   25578       1
   25548   25566   25575   25584       1   25548   25569  -25578   25584       1
   25545   25566   25548   25569       1   25545   25566   25575   25584       1
   25533   25512   25530   25545       1   25533   25548  -25566   25545       1
   25533   25548   25566   25575       1   25533   25548   25569   25578       1
   25530   25512   25533   25548       1   25530   25545  -25566   25548       1
   25530   25545   25566   25575       1   25521   25500   25518   25536       1
   25521   25542  -25554   25536       1   25518   25500   25521   25542       1
   25518   25536  -25554   25542       1   25512   25530   25545   25566       1
   25512   25533  -25548   25566       1   25512   25533   25548   25569       1
   25509   25494   25506   25521       1   25509   25530   25512   25533       1
   25509   25530   25545   25566       1   25506   25494   25509   25530       1
   25506   25521   25500   25518       1   25506   25521   25542   25554       1
   25500   25518   25536   25554       1   25500   25521  -25542   25554       1
   25497   25488   25491   25500       1   25497   25488   25494   25506       1
   25497   25488   25494   25509       1   25497   25512  -25530   25509       1
   25497   25512   25530   25545       1   25497   25512   25533   25548       1
   25494   25488   25491   25500       1   25494   25488   25497   25512       1
   25494   25506  -25521   25500       1   25494   25506   25521   25542       1
   25494   25509  -25530   25512       1   25494   25509   25530   25545       1
   25491   25488   25494   25506       1   25491   25488   25494   25509       1
   25491   25488   25497   25512       1   25491   25500   25518   25536       1
   25491   25500  -25521   25506       1   25491   25500   25521   25542       1
   25488   25491   25500   25518       1   25488   25491   25500   25521       1
   25488   25494  -25506   25521       1   25488   25494   25509   25530       1
   25488   25497  -25512   25530       1   25488   25497   25512   25533       1
   25677   25656   25674   25683       1   25677   25686  -25692   25683       1
   25674   25656   25677   25686       1   25674   25683  -25692   25686       1
   25656   25674   25683   25692       1   25656   25677  -25686   25692       1
   25653   25674   25656   25677       1   25653   25674   25683   25692       1
   25641   25620   25638   25653       1   25641   25656  -25674   25653       1
   25641   25656   25674   25683       1   25641   25656   25677   25686       1
   25638   25620   25641   25656       1   25638   25653  -25674   25656       1
   25638   25653   25674   25683       1   25629   25608   25626   25644       1
   25629   25650  -25662   25644       1   25626   25608   25629   25650       1
   25626   25644  -25662   25650       1   25620   25638   25653   25674       1
   25620   25641  -25656   25674       1   25620   25641   25656   25677       1
   25617   25602   25614   25629       1   25617   25638   25620   25641       1
   25617   25638   25653   25674       1   25614   25602   25617   25638       1
   25614   25629   25608   25626       1   25614   25629   25650   25662       1
   25608   25626   25644   25662       1   25608   25629  -25650   25662       1
   25605   25596   25599   25608       1   25605   25596   25602   25614       1
   25605   25596   25602   25617       1   25605   25620  -25638   25617       1
   25605   25620   25638   25653       1   25605   25620   25641   25656       1
   25602   25596   25599   25608       1   25602   25596   25605   25620       1
   25602   25614  -25629   25608       1   25602   25614   25629   25650       1
   25602   25617  -25638   25620       1   25602   25617   25638   25653       1
   25599   25596   25602   25614       1   25599   25596   25602   25617       1
   25599   25596   25605   25620       1   25599   25608   25626   25644       1
   25599   25608  -25629   25614       1   25599   25608   25629   25650       1
   25596   25599   25608   25626       1   25596   25599   25608   25629       1
   25596   25602  -25614   25629       1   25596   25602   25617   25638       1
   25596   25605  -25620   25638       1   25596   25605   25620   25641       1
   25785   25764   25782   25791       1   25785   25794  -25800   25791       1
   25782   25764   25785   25794       1   25782   25791  -25800   25794       1
   25764   25782   25791   25800       1   25764   25785  -25794   25800       1
   25761   25782   25764   25785       1   25761   25782   25791   25800       1
   25749   25728   25746   25761       1   25749   25764  -25782   25761       1
   25749   25764   25782   25791       1   25749   25764   25785   25794       1
   25746   25728   25749   25764       1   25746   25761  -25782   25764       1
   25746   25761   25782   25791       1   25737   25716   25734   25752       1
   25737   25758  -25770   25752       1   25734   25716   25737   25758       1
   25734   25752  -25770   25758       1   25728   25746   25761   25782       1
   25728   25749  -25764   25782       1   25728   25749   25764   25785       1
   25725   25710   25722   25737       1   25725   25746   25728   25749       1
   25725   25746   25761   25782       1   25722   25710   25725   25746       1
   25722   25737   25716   25734       1   25722   25737   25758   25770       1
   25716   25734   25752   25770       1   25716   25737  -25758   25770       1
   25713   25704   25707   25716       1   25713   25704   25710   25722       1
   25713   25704   25710   25725       1   25713   25728  -25746   25725       1
   25713   25728   25746   25761       1   25713   25728   25749   25764       1
   25710   25704   25707   25716       1   25710   25704   25713   25728       1
   25710   25722  -25737   25716       1   25710   25722   25737   25758       1
   25710   25725  -25746   25728       1   25710   25725   25746   25761       1
   25707   25704   25710   25722       1   25707   25704   25710   25725       1
   25707   25704   25713   25728       1   25707   25716   25734   25752       1
   25707   25716  -25737   25722       1   25707   25716   25737   25758       1
   25704   25707   25716   25734       1   25704   25707   25716   25737       1
   25704   25710  -25722   25737       1   25704   25710   25725   25746       1
   25704   25713  -25728   25746       1   25704   25713   25728   25749       1
   25893   25872   25890   25899       1   25893   25902  -25908   25899       1
   25890   25872   25893   25902       1   25890   25899  -25908   25902       1
   25872   25890   25899   25908       1   25872   25893  -25902   25908       1
   25869   25890   25872   25893       1   25869   25890   25899   25908       1
   25857   25836   25854   25869       1   25857   25872  -25890   25869       1
   25857   25872   25890   25899       1   25857   25872   25893   25902       1
   25854   25836   25857   25872       1   25854   25869  -25890   25872       1
   25854   25869   25890   25899       1   25845   25824   25842   25860       1
   25845   25866  -25878   25860       1   25842   25824   25845   25866       1
   25842   25860  -25878   25866       1   25836   25854   25869   25890       1
   25836   25857  -25872   25890       1   25836   25857   25872   25893       1
   25833   25818   25830   25845       1   25833   25854   25836   25857       1
   25833   25854   25869   25890       1   25830   25818   25833   25854       1
   25830   25845   25824   25842       1   25830   25845   25866   25878       1
   25824   25842   25860   25878       1   25824   25845  -25866   25878       1
   25821   25812   25815   25824       1   25821   25812   25818   25830       1
   25821   25812   25818   25833       1   25821   25836  -25854   25833       1
   25821   25836   25854   25869       1   25821   25836   25857   25872       1
   25818   25812   25815   25824       1   25818   25812   25821   25836       1
   25818   25830  -25845   25824       1   25818   25830   25845   25866       1
   25818   25833  -25854   25836       1   25818   25833   25854   25869       1
   25815   25812   25818   25830       1   25815   25812   25818   25833       1
   25815   25812   25821   25836       1   25815   25824   25842   25860       1
   25815   25824  -25845   25830       1   25815   25824   25845   25866       1
   25812   25815   25824   25842       1   25812   25815   25824   25845       1
   25812   25818  -25830   25845       1   25812   25818   25833   25854       1
   25812   25821  -25836   25854       1   25812   25821   25836   25857       1
   26001   25980   25998   26007       1   26001   26010  -26016   26007       1
   25998   25980   26001   26010       1   25998   26007  -26016   26010       1
   25980   25998   26007   26016       1   25980   26001  -26010   26016       1
   25977   25998   25980   26001       1   25977   25998   26007   26016       1
   25965   25944   25962   25977       1   25965   25980  -25998   25977       1
   25965   25980   25998   26007       1   25965   25980   26001   26010       1
   25962   25944   25965   25980       1   25962   25977  -25998   25980       1
   25962   25977   25998   26007       1   25953   25932   25950   25968       1
   25953   25974  -25986   25968       1   25950   25932   25953   25974       1
   25950   25968  -25986   25974       1   25944   25962   25977   25998       1
   25944   25965  -25980   25998       1   25944   25965   25980   26001       1
   25941   25926   25938   25953       1   25941   25962   25944   25965       1
   25941   25962   25977   25998       1   25938   25926   25941   25962       1
   25938   25953   25932   25950       1   25938   25953   25974   25986       1
   25932   25950   25968   25986       1   25932   25953  -25974   25986       1
   25929   25920   25923   25932       1   25929   25920   25926   25938       1
   25929   25920   25926   25941       1   25929   25944  -25962   25941       1
   25929   25944   25962   25977       1   25929   25944   25965   25980       1
   25926   25920   25923   25932       1   25926   25920   25929   25944       1
   25926   25938  -25953   25932       1   25926   25938   25953   25974       1
   25926   25941  -25962   25944       1   25926   25941   25962   25977       1
   25923   25920   25926   25938       1   25923   25920   25926   25941       1
   25923   25920   25929   25944       1   25923   25932   25950   25968       1
   25923   25932  -25953   25938       1   25923   25932   25953   25974       1
   25920   25923   25932   25950       1   25920   25923   25932   25953       1
   25920   25926  -25938   25953       1   25920   25926   25941   25962       1
   25920   25929  -25944   25962       1   25920   25929   25944   25965       1
   26109   26088   26106   26115       1   26109   26118  -26124   26115       1
   26106   26088   26109   26118       1   26106   26115  -26124   26118       1
   26088   26106   26115   26124       1   26088   26109  -26118   26124       1
   26085   26106   26088   26109       1   26085   26106   26115   26124       1
   26073   26052   26070   26085       1   26073   26088  -26106   26085       1
   26073   26088   26106   26115       1   26073   26088   26109   26118       1
   26070   26052   26073   26088       1   26070   26085  -26106   26088       1
   26070   26085   26106   26115       1   26061   26040   26058   26076       1
   26061   26082  -26094   26076       1   26058   26040   26061   26082       1
   26058   26076  -26094   26082       1   26052   26070   26085   26106       1
   26052   26073  -26088   26106       1   26052   26073   26088   26109       1
   26049   26034   26046   26061       1   26049   26070   26052   26073       1
   26049   26070   26085   26106       1   26046   26034   26049   26070       1
   26046   26061   26040   26058       1   26046   26061   26082   26094       1
   26040   26058   26076   26094       1   26040   26061  -26082   26094       1
   26037   26028   26031   26040       1   26037   26028   26034   26046       1
   26037   26028   26034   26049       1   26037   26052  -26070   26049       1
   26037   26052   26070   26085       1   26037   26052   26073   26088       1
   26034   26028   26031   26040       1   26034   26028   26037   26052       1
   26034   26046  -26061   26040       1   26034   26046   26061   26082       1
   26034   26049  -26070   26052       1   26034   26049   26070   26085       1
   26031   26028   26034   26046       1   26031   26028   26034   26049       1
   26031   26028   26037   26052       1   26031   26040   26058   26076       1
   26031   26040  -26061   26046       1   26031   26040   26061   26082       1
   26028   26031   26040   26058       1   26028   26031   26040   26061       1
   26028   26034  -26046   26061       1   26028   26034   26049   26070       1
   26028   26037  -26052   26070       1   26028   26037   26052   26073       1
   26217   26196   26214   26223       1   26217   26226  -26232   26223       1
   26214   26196   26217   26226       1   26214   26223  -26232   26226       1
   26196   26214   26223   26232       1   26196   26217  -26226   26232       1
   26193   26214   26196   26217       1   26193   26214   26223   26232       1
   26181   26160   26178   26193       1   26181   26196  -26214   26193       1
   26181   26196   26214   26223       1   26181   26196   26217   26226       1
   26178   26160   26181   26196       1   26178   26193  -26214   26196       1
   26178   26193   26214   26223       1   26169   26148   26166   26184       1
   26169   26190  -26202   26184       1   26166   26148   26169   26190       1
   26166   26184  -26202   26190       1   26160   26178   26193   26214       1
   26160   26181  -26196   26214       1   26160   26181   26196   26217       1
   26157   26142   26154   26169       1   26157   26178   26160   26181       1
   26157   26178   26193   26214       1   26154   26142   26157   26178       1
   26154   26169   26148   26166       1   26154   26169   26190   26202       1
   26148   26166   26184   26202       1   26148   26169  -26190   26202       1
   26145   26136   26139   26148       1   26145   26136   26142   26154       1
   26145   26136   26142   26157       1   26145   26160  -26178   26157       1
   26145   26160   26178   26193       1   26145   26160   26181   26196       1
   26142   26136   26139   26148       1   26142   26136   26145   26160       1
   26142   26154  -26169   26148       1   26142   26154   26169   26190       1
   26142   26157  -26178   26160       1   26142   26157   26178   26193       1
   26139   26136   26142   26154       1   26139   26136   26142   26157       1
   26139   26136   26145   26160       1   26139   26148   26166   26184       1
   26139   26148  -26169   26154       1   26139   26148   26169   26190       1
   26136   26139   26148   26166       1   26136   26139   26148   26169       1
   26136   26142  -26154   26169       1   26136   26142   26157   26178       1
   26136   26145  -26160   26178       1   26136   26145   26160   26181       1
   26325   26304   26322   26331       1   26325   26334  -26340   26331       1
   26322   26304   26325   26334       1   26322   26331  -26340   26334       1
   26304   26322   26331   26340       1   26304   26325  -26334   26340       1
   26301   26322   26304   26325       1   26301   26322   26331   26340       1
   26289   26268   26286   26301       1   26289   26304  -26322   26301       1
   26289   26304   26322   26331       1   26289   26304   26325   26334       1
   26286   26268   26289   26304       1   26286   26301  -26322   26304       1
   26286   26301   26322   26331       1   26277   26256   26274   26292       1
   26277   26298  -26310   26292       1   26274   26256   26277   26298       1
   26274   26292  -26310   26298       1   26268   26286   26301   26322       1
   26268   26289  -26304   26322       1   26268   26289   26304   26325       1
   26265   26250   26262   26277       1   26265   26286   26268   26289       1
   26265   26286   26301   26322       1   26262   26250   26265   26286       1
   26262   26277   26256   26274       1   26262   26277   26298   26310       1
   26256   26274   26292   26310       1   26256   26277  -26298   26310       1
   26253   26244   26247   26256       1   26253   26244   26250   26262       1
   26253   26244   26250   26265       1   26253   26268  -26286   26265       1
   26253   26268   26286   26301       1   26253   26268   26289   26304       1
   26250   26244   26247   26256       1   26250   26244   26253   26268       1
   26250   26262  -26277   26256       1   26250   26262   26277   26298       1
   26250   26265  -26286   26268       1   26250   26265   26286   26301       1
   26247   26244   26250   26262       1   26247   26244   26250   26265       1
   26247   26244   26253   26268       1   26247   26256   26274   26292       1
   26247   26256  -26277   26262       1   26247   26256   26277   26298       1
   26244   26247   26256   26274       1   26244   26247   26256   26277       1
   26244   26250  -26262   26277       1   26244   26250   26265   26286       1
   26244   26253  -26268   26286       1   26244   26253   26268   26289       1
   26433   26412   26430   26439       1   26433   26442  -26448   26439       1
   26430   26412   26433   26442       1   26430   26439  -26448   26442       1
   26412   26430   26439   26448       1   26412   26433  -26442   26448       1
   26409   26430   26412   26433       1   26409   26430   26439   26448       1
   26397   26376   26394   26409       1   26397   26412  -26430   26409       1
   26397   26412   26430   26439       1   26397   26412   26433   26442       1
   26394   26376   26397   26412       1   26394   26409  -26430   26412       1
   26394   26409   26430   26439       1   26385   26364   26382   26400       1
   26385   26406  -26418   26400       1   26382   26364   26385   26406       1
   26382   26400  -26418   26406       1   26376   26394   26409   26430       1
   26376   26397  -26412   26430       1   26376   26397   26412   26433       1
   26373   26358   26370   26385       1   26373   26394   26376   26397       1
   26373   26394   26409   26430       1   26370   26358   26373   26394       1
   26370   26385   26364   26382       1   26370   26385   26406   26418       1
   26364   26382   26400   26418       1   26364   26385  -26406   26418       1
   26361   26352   26355   26364       1   26361   26352   26358   26370       1
   26361   26352   26358   26373       1   26361   26376  -26394   26373       1
   26361   26376   26394   26409       1   26361   26376   26397   26412       1
   26358   26352   26355   26364       1   26358   26352   26361   26376       1
   26358   26370  -26385   26364       1   26358   26370   26385   26406       1
   26358   26373  -26394   26376       1   26358   26373   26394   26409       1
   26355   26352   26358   26370       1   26355   26352   26358   26373       1
   26355   26352   26361   26376       1   26355   26364   26382   26400       1
   26355   26364  -26385   26370       1   26355   26364   26385   26406       1
   26352   26355   26364   26382       1   26352   26355   26364   26385       1
   26352   26358  -26370   26385       1   26352   26358   26373   26394       1
   26352   26361  -26376   26394       1   26352   26361   26376   26397       1
   26541   26520   26538   26547       1   26541   26550  -26556   26547       1
   26538   26520   26541   26550       1   26538   26547  -26556   26550       1
   26520   26538   26547   26556       1   26520   26541  -26550   26556       1
   26517   26538   26520   26541       1   26517   26538   26547   26556       1
   26505   26484   26502   26517       1   26505   26520  -26538   26517       1
   26505   26520   26538   26547       1   26505   26520   26541   26550       1
   26502   26484   26505   26520       1   26502   26517  -26538   26520       1
   26502   26517   26538   26547       1   26493   26472   26490   26508       1
   26493   26514  -26526   26508       1   26490   26472   26493   26514       1
   26490   26508  -26526   26514       1   26484   26502   26517   26538       1
   26484   26505  -26520   26538       1   26484   26505   26520   26541       1
   26481   26466   26478   26493       1   26481   26502   26484   26505       1
   26481   26502   26517   26538       1   26478   26466   26481   26502       1
   26478   26493   26472   26490       1   26478   26493   26514   26526       1
   26472   26490   26508   26526       1   26472   26493  -26514   26526       1
   26469   26460   26463   26472       1   26469   26460   26466   26478       1
   26469   26460   26466   26481       1   26469   26484  -26502   26481       1
   26469   26484   26502   26517       1   26469   26484   26505   26520       1
   26466   26460   26463   26472       1   26466   26460   26469   26484       1
   26466   26478  -26493   26472       1   26466   26478   26493   26514       1
   26466   26481  -26502   26484       1   26466   26481   26502   26517       1
   26463   26460   26466   26478       1   26463   26460   26466   26481       1
   26463   26460   26469   26484       1   26463   26472   26490   26508       1
   26463   26472  -26493   26478       1   26463   26472   26493   26514       1
   26460   26463   26472   26490       1   26460   26463   26472   26493       1
   26460   26466  -26478   26493       1   26460   26466   26481   26502       1
   26460   26469  -26484   26502       1   26460   26469   26484   26505       1
   26649   26628   26646   26655       1   26649   26658  -26664   26655       1
   26646   26628   26649   26658       1   26646   26655  -26664   26658       1
   26628   26646   26655   26664       1   26628   26649  -26658   26664       1
   26625   26646   26628   26649       1   26625   26646   26655   26664       1
   26613   26592   26610   26625       1   26613   26628  -26646   26625       1
   26613   26628   26646   26655       1   26613   26628   26649   26658       1
   26610   26592   26613   26628       1   26610   26625  -26646   26628       1
   26610   26625   26646   26655       1   26601   26580   26598   26616       1
   26601   26622  -26634   26616       1   26598   26580   26601   26622       1
   26598   26616  -26634   26622       1   26592   26610   26625   26646       1
   26592   26613  -26628   26646       1   26592   26613   26628   26649       1
   26589   26574   26586   26601       1   26589   26610   26592   26613       1
   26589   26610   26625   26646       1   26586   26574   26589   26610       1
   26586   26601   26580   26598       1   26586   26601   26622   26634       1
   26580   26598   26616   26634       1   26580   26601  -26622   26634       1
   26577   26568   26571   26580       1   26577   26568   26574   26586       1
   26577   26568   26574   26589       1   26577   26592  -26610   26589       1
   26577   26592   26610   26625       1   26577   26592   26613   26628       1
   26574   26568   26571   26580       1   26574   26568   26577   26592       1
   26574   26586  -26601   26580       1   26574   26586   26601   26622       1
   26574   26589  -26610   26592       1   26574   26589   26610   26625       1
   26571   26568   26574   26586       1   26571   26568   26574   26589       1
   26571   26568   26577   26592       1   26571   26580   26598   26616       1
   26571   26580  -26601   26586       1   26571   26580   26601   26622       1
   26568   26571   26580   26598       1   26568   26571   26580   26601       1
   26568   26574  -26586   26601       1   26568   26574   26589   26610       1
   26568   26577  -26592   26610       1   26568   26577   26592   26613       1
   26757   26736   26754   26763       1   26757   26766  -26772   26763       1
   26754   26736   26757   26766       1   26754   26763  -26772   26766       1
   26736   26754   26763   26772       1   26736   26757  -26766   26772       1
   26733   26754   26736   26757       1   26733   26754   26763   26772       1
   26721   26700   26718   26733       1   26721   26736  -26754   26733       1
   26721   26736   26754   26763       1   26721   26736   26757   26766       1
   26718   26700   26721   26736       1   26718   26733  -26754   26736       1
   26718   26733   26754   26763       1   26709   26688   26706   26724       1
   26709   26730  -26742   26724       1   26706   26688   26709   26730       1
   26706   26724  -26742   26730       1   26700   26718   26733   26754       1
   26700   26721  -26736   26754       1   26700   26721   26736   26757       1
   26697   26682   26694   26709       1   26697   26718   26700   26721       1
   26697   26718   26733   26754       1   26694   26682   26697   26718       1
   26694   26709   26688   26706       1   26694   26709   26730   26742       1
   26688   26706   26724   26742       1   26688   26709  -26730   26742       1
   26685   26676   26679   26688       1   26685   26676   26682   26694       1
   26685   26676   26682   26697       1   26685   26700  -26718   26697       1
   26685   26700   26718   26733       1   26685   26700   26721   26736       1
   26682   26676   26679   26688       1   26682   26676   26685   26700       1
   26682   26694  -26709   26688       1   26682   26694   26709   26730       1
   26682   26697  -26718   26700       1   26682   26697   26718   26733       1
   26679   26676   26682   26694       1   26679   26676   26682   26697       1
   26679   26676   26685   26700       1   26679   26688   26706   26724       1
   26679   26688  -26709   26694       1   26679   26688   26709   26730       1
   26676   26679   26688   26706       1   26676   26679   26688   26709       1
   26676   26682  -26694   26709       1   26676   26682   26697   26718       1
   26676   26685  -26700   26718       1   26676   26685   26700   26721       1
   26865   26844   26862   26871       1   26865   26874  -26880   26871       1
   26862   26844   26865   26874       1   26862   26871  -26880   26874       1
   26844   26862   26871   26880       1   26844   26865  -26874   26880       1
   26841   26862   26844   26865       1   26841   26862   26871   26880       1
   26829   26808   26826   26841       1   26829   26844  -26862   26841       1
   26829   26844   26862   26871       1   26829   26844   26865   26874       1
   26826   26808   26829   26844       1   26826   26841  -26862   26844       1
   26826   26841   26862   26871       1   26817   26796   26814   26832       1
   26817   26838  -26850   26832       1   26814   26796   26817   26838       1
   26814   26832  -26850   26838       1   26808   26826   26841   26862       1
   26808   26829  -26844   26862       1   26808   26829   26844   26865       1
   26805   26790   26802   26817       1   26805   26826   26808   26829       1
   26805   26826   26841   26862       1   26802   26790   26805   26826       1
   26802   26817   26796   26814       1   26802   26817   26838   26850       1
   26796   26814   26832   26850       1   26796   26817  -26838   26850       1
   26793   26784   26787   26796       1   26793   26784   26790   26802       1
   26793   26784   26790   26805       1   26793   26808  -26826   26805       1
   26793   26808   26826   26841       1   26793   26808   26829   26844       1
   26790   26784   26787   26796       1   26790   26784   26793   26808       1
   26790   26802  -26817   26796       1   26790   26802   26817   26838       1
   26790   26805  -26826   26808       1   26790   26805   26826   26841       1
   26787   26784   26790   26802       1   26787   26784   26790   26805       1
   26787   26784   26793   26808       1   26787   26796   26814   26832       1
   26787   26796  -26817   26802       1   26787   26796   26817   26838       1
   26784   26787   26796   26814       1   26784   26787   26796   26817       1
   26784   26790  -26802   26817       1   26784   26790   26805   26826       1
   26784   26793  -26808   26826       1   26784   26793   26808   26829       1
   26973   26952   26970   26979       1   26973   26982  -26988   26979       1
   26970   26952   26973   26982       1   26970   26979  -26988   26982       1
   26952   26970   26979   26988       1   26952   26973  -26982   26988       1
   26949   26970   26952   26973       1   26949   26970   26979   26988       1
   26937   26916   26934   26949       1   26937   26952  -26970   26949       1
   26937   26952   26970   26979       1   26937   26952   26973   26982       1
   26934   26916   26937   26952       1   26934   26949  -26970   26952       1
   26934   26949   26970   26979       1   26925   26904   26922   26940       1
   26925   26946  -26958   26940       1   26922   26904   26925   26946       1
   26922   26940  -26958   26946       1   26916   26934   26949   26970       1
   26916   26937  -26952   26970       1   26916   26937   26952   26973       1
   26913   26898   26910   26925       1   26913   26934   26916   26937       1
   26913   26934   26949   26970       1   26910   26898   26913   26934       1
   26910   26925   26904   26922       1   26910   26925   26946   26958       1
   26904   26922   26940   26958       1   26904   26925  -26946   26958       1
   26901   26892   26895   26904       1   26901   26892   26898   26910       1
   26901   26892   26898   26913       1   26901   26916  -26934   26913       1
   26901   26916   26934   26949       1   26901   26916   26937   26952       1
   26898   26892   26895   26904       1   26898   26892   26901   26916       1
   26898   26910  -26925   26904       1   26898   26910   26925   26946       1
   26898   26913  -26934   26916       1   26898   26913   26934   26949       1
   26895   26892   26898   26910       1   26895   26892   26898   26913       1
   26895   26892   26901   26916       1   26895   26904   26922   26940       1
   26895   26904  -26925   26910       1   26895   26904   26925   26946       1
   26892   26895   26904   26922       1   26892   26895   26904   26925       1
   26892   26898  -26910   26925       1   26892   26898   26913   26934       1
   26892   26901  -26916   26934       1   26892   26901   26916   26937       1
      57      60     -78     -87       2      45      78     -60     -81       2
      21      24     -42     -57       2      12      18     -33     -54       2
       9      42     -24     -45       2       3      30     -12     -33       2
       0      18      -6     -21       2       9       0      -6      -3       2
     165     168    -186    -195       2     153     186    -168    -189       2
     129     132    -150    -165       2     120     126    -141    -162       2
     117     150    -132    -153       2     111     138    -120    -141       2
     108     126    -114    -129       2     111     114    -108    -117       2
     273     276    -294    -303       2     261     294    -276    -297       2
     237     240    -258    -273       2     228     234    -249    -270       2
     225     258    -240    -261       2     219     246    -228    -249       2
     216     234    -222    -237       2     219     222    -216    -225       2
     381     384    -402    -411       2     369     402    -384    -405       2
     345     348    -366    -381       2     336     342    -357    -378       2
     333     366    -348    -369       2     327     354    -336    -357       2
     324     342    -330    -345       2     327     330    -324    -333       2
     489     492    -510    -519       2     477     510    -492    -513       2
     453     456    -474    -489       2     444     450    -465    -486       2
     441     474    -456    -477       2     435     462    -444    -465       2
     432     450    -438    -453       2     435     438    -432    -441       2
     597     600    -618    -627       2     585     618    -600    -621       2
     561     564    -582    -597       2     552     558    -573    -594       2
     549     582    -564    -585       2     543     570    -552    -573       2
     540     558    -546    -561       2     543     546    -540    -549       2
     705     708    -726    -735       2     693     726    -708    -729       2
     669     672    -690    -705       2     660     666    -681    -702       2
     657     690    -672    -693       2     651     678    -660    -681       2
     648     666    -654    -669       2     651     654    -648    -657       2
     813     816    -834    -843       2     801     834    -816    -837       2
     777     780    -798    -813       2     768     774    -789    -810       2
     765     798    -780    -801       2     759     786    -768    -789       2
     756     774    -762    -777       2     759     762    -756    -765       2
     921     924    -942    -951       2     909     942    -924    -945       2
     885     888    -906    -921       2     876     882    -897    -918       2
     873     906    -888    -909       2     867     894    -876    -897       2
     864     882    -870    -885       2     867     870    -864    -873       2
    1029    1032   -1050   -1059       2    1017    1050   -1032   -1053       2
     993     996   -1014   -1029       2     984     990   -1005   -1026       2
     981    1014    -996   -1017       2     975    1002    -984   -1005       2
     972     990    -978    -993       2     975     978    -972    -981       2
    1137    1140   -1158   -1167       2    1125    1158   -1140   -1161       2
    1101    1104   -1122   -1137       2    1092    1098   -1113   -1134       2
    1089    1122   -1104   -1125       2    1083    1110   -1092   -1113       2
    1080    1098   -1086   -1101       2    1083    1086   -1080   -1089       2
    1245    1248   -1266   -1275       2    1233    1266   -1248   -1269       2
    1209    1212   -1230   -1245       2    1200    1206   -1221   -1242       2
    1197    1230   -1212   -1233       2    1191    1218   -1200   -1221       2
    1188    1206   -1194   -1209       2    1191    1194   -1188   -1197       2
    1353    1356   -1374   -1383       2    1341    1374   -1356   -1377       2
    1317    1320   -1338   -1353       2    1308    1314   -1329   -1350       2
    1305    1338   -1320   -1341       2    1299    1326   -1308   -1329       2
    1296    1314   -1302   -1317       2    1299    1302   -1296   -1305       2
    1461    1464   -1482   -1491       2    1449    1482   -1464   -1485       2
    1425    1428   -1446   -1461       2    1416    1422   -1437   -1458       2
    1413    1446   -1428   -1449       2    1407    1434   -1416   -1437       2
    1404    1422   -1410   -1425       2    1407    1410   -1404   -1413       2
    1569    1572   -1590   -1599       2    1557    1590   -1572   -1593       2
    1533    1536   -1554   -1569       2    1524    1530   -1545   -1566       2
    1521    1554   -1536   -1557       2    1515    1542   -1524   -1545       2
    1512    1530   -1518   -1533       2    1515    1518   -1512   -1521       2
    1677    1680   -1698   -1707       2    1665    1698   -1680   -1701       2
    1641    1644   -1662   -1677       2    1632    1638   -1653   -1674       2
    1629    1662   -1644   -1665       2    1623    1650   -1632   -1653       2
    1620    1638   -1626   -1641       2    1623    1626   -1620   -1629       2
    1785    1788   -1806   -1815       2    1773    1806   -1788   -1809       2
    1749    1752   -1770   -1785       2    1740    1746   -1761   -1782       2
    1737    1770   -1752   -1773       2    1731    1758   -1740   -1761       2
    1728    1746   -1734   -1749       2    1731    1734   -1728   -1737       2
    1893    1896   -1914   -1923       2    1881    1914   -1896   -1917       2
    1857    1860   -1878   -1893       2    1848    1854   -1869   -1890       2
    1845    1878   -1860   -1881       2    1839    1866   -1848   -1869       2
    1836    1854   -1842   -1857       2    1839    1842   -1836   -1845       2
    2001    2004   -2022   -2031       2    1989    2022   -2004   -2025       2
    1965    1968   -1986   -2001       2    1956    1962   -1977   -1998       2
    1953    1986   -1968   -1989       2    1947    1974   -1956   -1977       2
    1944    1962   -1950   -1965       2    1947    1950   -1944   -1953       2
    2109    2112   -2130   -2139       2    2097    2130   -2112   -2133       2
    2073    2076   -2094   -2109       2    2064    2070   -2085   -2106       2
    2061    2094   -2076   -2097       2    2055    2082   -2064   -2085       2
    2052    2070   -2058   -2073       2    2055    2058   -2052   -2061       2
    2217    2220   -2238   -2247       2    2205    2238   -2220   -2241       2
    2181    2184   -2202   -2217       2    2172    2178   -2193   -2214       2
    2169    2202   -2184   -2205       2    2163    2190   -2172   -2193       2
    2160    2178   -2166   -2181       2    2163    2166   -2160   -2169       2
    2325    2328   -2346   -2355       2    2313    2346   -2328   -2349       2
    2289    2292   -2310   -2325       2    2280    2286   -2301   -2322       2
    2277    2310   -2292   -2313       2    2271    2298   -2280   -2301       2
    2268    2286   -2274   -2289       2    2271    2274   -2268   -2277       2
    2433    2436   -2454   -2463       2    2421    2454   -2436   -2457       2
    2397    2400   -2418   -2433       2    2388    2394   -2409   -2430       2
    2385    2418   -2400   -2421       2    2379    2406   -2388   -2409       2
    2376    2394   -2382   -2397       2    2379    2382   -2376   -2385       2
    2541    2544   -2562   -2571       2    2529    2562   -2544   -2565       2
    2505    2508   -2526   -2541       2    2496    2502   -2517   -2538       2
    2493    2526   -2508   -2529       2    2487    2514   -2496   -2517       2
    2484    2502   -2490   -2505       2    2487    2490   -2484   -2493       2
    2649    2652   -2670   -2679       2    2637    2670   -2652   -2673       2
    2613    2616   -2634   -2649       2    2604    2610   -2625   -2646       2
    2601    2634   -2616   -2637       2    2595    2622   -2604   -2625       2
    2592    2610   -2598   -2613       2    2595    2598   -2592   -2601       2
    2757    2760   -2778   -2787       2    2745    2778   -2760   -2781       2
    2721    2724   -2742   -2757       2    2712    2718   -2733   -2754       2
    2709    2742   -2724   -2745       2    2703    2730   -2712   -2733       2
    2700    2718   -2706   -2721       2    2703    2706   -2700   -2709       2
    2865    2868   -2886   -2895       2    2853    2886   -2868   -2889       2
    2829    2832   -2850   -2865       2    2820    2826   -2841   -2862       2
    2817    2850   -2832   -2853       2    2811    2838   -2820   -2841       2
    2808    2826   -2814   -2829       2    2811    2814   -2808   -2817       2
    2973    2976   -2994   -3003       2    2961    2994   -2976   -2997       2
    2937    2940   -2958   -2973       2    2928    2934   -2949   -2970       2
    2925    2958   -2940   -2961       2    2919    2946   -2928   -2949       2
    2916    2934   -2922   -2937       2    2919    2922   -2916   -2925       2
    3081    3084   -3102   -3111       2    3069    3102   -3084   -3105       2
    3045    3048   -3066   -3081       2    3036    3042   -3057   -3078       2
    3033    3066   -3048   -3069       2    3027    3054   -3036   -3057       2
    3024    3042   -3030   -3045       2    3027    3030   -3024   -3033       2
    3189    3192   -3210   -3219       2    3177    3210   -3192   -3213       2
    3153    3156   -3174   -3189       2    3144    3150   -3165   -3186       2
    3141    3174   -3156   -3177       2    3135    3162   -3144   -3165       2
    3132    3150   -3138   -3153       2    3135    3138   -3132   -3141       2
    3297    3300   -3318   -3327       2    3285    3318   -3300   -3321       2
    3261    3264   -3282   -3297       2    3252    3258   -3273   -3294       2
    3249    3282   -3264   -3285       2    3243    3270   -3252   -3273       2
    3240    3258   -3246   -3261       2    3243    3246   -3240   -3249       2
    3405    3408   -3426   -3435       2    3393    3426   -3408   -3429       2
    3369    3372   -3390   -3405       2    3360    3366   -3381   -3402       2
    3357    3390   -3372   -3393       2    3351    3378   -3360   -3381       2
    3348    3366   -3354   -3369       2    3351    3354   -3348   -3357       2
    3513    3516   -3534   -3543       2    3501    3534   -3516   -3537       2
    3477    3480   -3498   -3513       2    3468    3474   -3489   -3510       2
    3465    3498   -3480   -3501       2    3459    3486   -3468   -3489       2
    3456    3474   -3462   -3477       2    3459    3462   -3456   -3465       2
    3621    3624   -3642   -3651       2    3609    3642   -3624   -3645       2
    3585    3588   -3606   -3621       2    3576    3582   -3597   -3618       2
    3573    3606   -3588   -3609       2    3567    3594   -3576   -3597       2
    3564    3582   -3570   -3585       2    3567    3570   -3564   -3573       2
    3729    3732   -3750   -3759       2    3717    3750   -3732   -3753       2
    3693    3696   -3714   -3729       2    3684    3690   -3705   -3726       2
    3681    3714   -3696   -3717       2    3675    3702   -3684   -3705       2
    3672    3690   -3678   -3693       2    3675    3678   -3672   -3681       2
    3837    3840   -3858   -3867       2    3825    3858   -3840   -3861       2
    3801    3804   -3822   -3837       2    3792    3798   -3813   -3834       2
    3789    3822   -3804   -3825       2    3783    3810   -3792   -3813       2
    3780    3798   -3786   -3801       2    3783    3786   -3780   -3789       2
    3945    3948   -3966   -3975       2    3933    3966   -3948   -3969       2
    3909    3912   -3930   -3945       2    3900    3906   -3921   -3942       2
    3897    3930   -3912   -3933       2    3891    3918   -3900   -3921       2
    3888    3906   -3894   -3909       2    3891    3894   -3888   -3897       2
    4053    4056   -4074   -4083       2    4041    4074   -4056   -4077       2
    4017    4020   -4038   -4053       2    4008    4014   -4029   -4050       2
    4005    4038   -4020   -4041       2    3999    4026   -4008   -4029       2
    3996    4014   -4002   -4017       2    3999    4002   -3996   -4005       2
    4161    4164   -4182   -4191       2    4149    4182   -4164   -4185       2
    4125    4128   -4146   -4161       2    4116    4122   -4137   -4158       2
    4113    4146   -4128   -4149       2    4107    4134   -4116   -4137       2
    4104    4122   -4110   -4125       2    4107    4110   -4104   -4113       2
    4269    4272   -4290   -4299       2    4257    4290   -4272   -4293       2
    4233    4236   -4254   -4269       2    4224    4230   -4245   -4266       2
    4221    4254   -4236   -4257       2    4215    4242   -4224   -4245       2
    4212    4230   -4218   -4233       2    4215    4218   -4212   -4221       2
    4377    4380   -4398   -4407       2    4365    4398   -4380   -4401       2
    4341    4344   -4362   -4377       2    4332    4338   -4353   -4374       2
    4329    4362   -4344   -4365       2    4323    4350   -4332   -4353       2
    4320    4338   -4326   -4341       2    4323    4326   -4320   -4329       2
    4485    4488   -4506   -4515       2    4473    4506   -4488   -4509       2
    4449    4452   -4470   -4485       2    4440    4446   -4461   -4482       2
    4437    4470   -4452   -4473       2    4431    4458   -4440   -4461       2
    4428    4446   -4434   -4449       2    4431    4434   -4428   -4437       2
    4593    4596   -4614   -4623       2    4581    4614   -4596   -4617       2
    4557    4560   -4578   -4593       2    4548    4554   -4569   -4590       2
    4545    4578   -4560   -4581       2    4539    4566   -4548   -4569       2
    4536    4554   -4542   -4557       2    4539    4542   -4536   -4545       2
    4701    4704   -4722   -4731       2    4689    4722   -4704   -4725       2
    4665    4668   -4686   -4701       2    4656    4662   -4677   -4698       2
    4653    4686   -4668   -4689       2    4647    4674   -4656   -4677       2
    4644    4662   -4650   -4665       2    4647    4650   -4644   -4653       2
    4809    4812   -4830   -4839       2    4797    4830   -4812   -4833       2
    4773    4776   -4794   -4809       2    4764    4770   -4785   -4806       2
    4761    4794   -4776   -4797       2    4755    4782   -4764   -4785       2
    4752    4770   -4758   -4773       2    4755    4758   -4752   -4761       2
    4917    4920   -4938   -4947       2    4905    4938   -4920   -4941       2
    4881    4884   -4902   -4917       2    4872    4878   -4893   -4914       2
    4869    4902   -4884   -4905       2    4863    4890   -4872   -4893       2
    4860    4878   -4866   -4881       2    4863    4866   -4860   -4869       2
    5025    5028   -5046   -5055       2    5013    5046   -5028   -5049       2
    4989    4992   -5010   -5025       2    4980    4986   -5001   -5022       2
    4977    5010   -4992   -5013       2    4971    4998   -4980   -5001       2
    4968    4986   -4974   -4989       2    4971    4974   -4968   -4977       2
    5133    5136   -5154   -5163       2    5121    5154   -5136   -5157       2
    5097    5100   -5118   -5133       2    5088    5094   -5109   -5130       2
    5085    5118   -5100   -5121       2    5079    5106   -5088   -5109       2
    5076    5094   -5082   -5097       2    5079    5082   -5076   -5085       2
    5241    5244   -5262   -5271       2    5229    5262   -5244   -5265       2
    5205    5208   -5226   -5241       2    5196    5202   -5217   -5238       2
    5193    5226   -5208   -5229       2    5187    5214   -5196   -5217       2
    5184    5202   -5190   -5205       2    5187    5190   -5184   -5193       2
    5349    5352   -5370   -5379       2    5337    5370   -5352   -5373       2
    5313    5316   -5334   -5349       2    5304    5310   -5325   -5346       2
    5301    5334   -5316   -5337       2    5295    5322   -5304   -5325       2
    5292    5310   -5298   -5313       2    5295    5298   -5292   -5301       2
    5457    5460   -5478   -5487       2    5445    5478   -5460   -5481       2
    5421    5424   -5442   -5457       2    5412    5418   -5433   -5454       2
    5409    5442   -5424   -5445       2    5403    5430   -5412   -5433       2
    5400    5418   -5406   -5421       2    5403    5406   -5400   -5409       2
    5565    5568   -5586   -5595       2    5553    5586   -5568   -5589       2
    5529    5532   -5550   -5565       2    5520    5526   -5541   -5562       2
    5517    5550   -5532   -5553       2    5511    5538   -5520   -5541       2
    5508    5526   -5514   -5529       2    5511    5514   -5508   -5517       2
    5673    5676   -5694   -5703       2    5661    5694   -5676   -5697       2
    5637    5640   -5658   -5673       2    5628    5634   -5649   -5670       2
    5625    5658   -5640   -5661       2    5619    5646   -5628   -5649       2
    5616    5634   -5622   -5637       2    5619    5622   -5616   -5625       2
    5781    5784   -5802   -5811       2    5769    5802   -5784   -5805       2
    5745    5748   -5766   -5781       2    5736    5742   -5757   -5778       2
    5733    5766   -5748   -5769       2    5727    5754   -5736   -5757       2
    5724    5742   -5730   -5745       2    5727    5730   -5724   -5733       2
    5889    5892   -5910   -5919       2    5877    5910   -5892   -5913       2
    5853    5856   -5874   -5889       2    5844    5850   -5865   -5886       2
    5841    5874   -5856   -5877       2    5835    5862   -5844   -5865       2
    5832    5850   -5838   -5853       2    5835    5838   -5832   -5841       2
    5997    6000   -6018   -6027       2    5985    6018   -6000   -6021       2
    5961    5964   -5982   -5997       2    5952    5958   -5973   -5994       2
    5949    5982   -5964   -5985       2    5943    5970   -5952   -5973       2
    5940    5958   -5946   -5961       2    5943    5946   -5940   -5949       2
    6105    6108   -6126   -6135       2    6093    6126   -6108   -6129       2
    6069    6072   -6090   -6105       2    6060    6066   -6081   -6102       2
    6057    6090   -6072   -6093       2    6051    6078   -6060   -6081       2
    6048    6066   -6054   -6069       2    6051    6054   -6048   -6057       2
    6213    6216   -6234   -6243       2    6201    6234   -6216   -6237       2
    6177    6180   -6198   -6213       2    6168    6174   -6189   -6210       2
    6165    6198   -6180   -6201       2    6159    6186   -6168   -6189       2
    6156    6174   -6162   -6177       2    6159    6162   -6156   -6165       2
    6321    6324   -6342   -6351       2    6309    6342   -6324   -6345       2
    6285    6288   -6306   -6321       2    6276    6282   -6297   -6318       2
    6273    6306   -6288   -6309       2    6267    6294   -6276   -6297       2
    6264    6282   -6270   -6285       2    6267    6270   -6264   -6273       2
    6429    6432   -6450   -6459       2    6417    6450   -6432   -6453       2
    6393    6396   -6414   -6429       2    6384    6390   -6405   -6426       2
    6381    6414   -6396   -6417       2    6375    6402   -6384   -6405       2
    6372    6390   -6378   -6393       2    6375    6378   -6372   -6381       2
    6537    6540   -6558   -6567       2    6525    6558   -6540   -6561       2
    6501    6504   -6522   -6537       2    6492    6498   -6513   -6534       2
    6489    6522   -6504   -6525       2    6483    6510   -6492   -6513       2
    6480    6498   -6486   -6501       2    6483    6486   -6480   -6489       2
    6645    6648   -6666   -6675       2    6633    6666   -6648   -6669       2
    6609    6612   -6630   -6645       2    6600    6606   -6621   -6642       2
    6597    6630   -6612   -6633       2    6591    6618   -6600   -6621       2
    6588    6606   -6594   -6609       2    6591    6594   -6588   -6597       2
    6753    6756   -6774   -6783       2    6741    6774   -6756   -6777       2
    6717    6720   -6738   -6753       2    6708    6714   -6729   -6750       2
    6705    6738   -6720   -6741       2    6699    6726   -6708   -6729       2
    6696    6714   -6702   -6717       2    6699    6702   -6696   -6705       2
    6861    6864   -6882   -6891       2    6849    6882   -6864   -6885       2
    6825    6828   -6846   -6861       2    6816    6822   -6837   -6858       2
    6813    6846   -6828   -6849       2    6807    6834   -6816   -6837       2
    6804    6822   -6810   -6825       2    6807    6810   -6804   -6813       2
    6969    6972   -6990   -6999       2    6957    6990   -6972   -6993       2
    6933    6936   -6954   -6969       2    6924    6930   -6945   -6966       2
    6921    6954   -6936   -6957       2    6915    6942   -6924   -6945       2
    6912    6930   -6918   -6933       2    6915    6918   -6912   -6921       2
    7077    7080   -7098   -7107       2    7065    7098   -7080   -7101       2
    7041    7044   -7062   -7077       2    7032    7038   -7053   -7074       2
    7029    7062   -7044   -7065       2    7023    7050   -7032   -7053       2
    7020    7038   -7026   -7041       2    7023    7026   -7020   -7029       2
    7185    7188   -7206   -7215       2    7173    7206   -7188   -7209       2
    7149    7152   -7170   -7185       2    7140    7146   -7161   -7182       2
    7137    7170   -7152   -7173       2    7131    7158   -7140   -7161       2
    7128    7146   -7134   -7149       2    7131    7134   -7128   -7137       2
    7293    7296   -7314   -7323       2    7281    7314   -7296   -7317       2
    7257    7260   -7278   -7293       2    7248    7254   -7269   -7290       2
    7245    7278   -7260   -7281       2    7239    7266   -7248   -7269       2
    7236    7254   -7242   -7257       2    7239    7242   -7236   -7245       2
    7401    7404   -7422   -7431       2    7389    7422   -7404   -7425       2
    7365    7368   -7386   -7401       2    7356    7362   -7377   -7398       2
    7353    7386   -7368   -7389       2    7347    7374   -7356   -7377       2
    7344    7362   -7350   -7365       2    7347    7350   -7344   -7353       2
    7509    7512   -7530   -7539       2    7497    7530   -7512   -7533       2
    7473    7476   -7494   -7509       2    7464    7470   -7485   -7506       2
    7461    7494   -7476   -7497       2    7455    7482   -7464   -7485       2
    7452    7470   -7458   -7473       2    7455    7458   -7452   -7461       2
    7617    7620   -7638   -7647       2    7605    7638   -7620   -7641       2
    7581    7584   -7602   -7617       2    7572    7578   -7593   -7614       2
    7569    7602   -7584   -7605       2    7563    7590   -7572   -7593       2
    7560    7578   -7566   -7581       2    7563    7566   -7560   -7569       2
    7725    7728   -7746   -7755       2    7713    7746   -7728   -7749       2
    7689    7692   -7710   -7725       2    7680    7686   -7701   -7722       2
    7677    7710   -7692   -7713       2    7671    7698   -7680   -7701       2
    7668    7686   -7674   -7689       2    7671    7674   -7668   -7677       2
    7833    7836   -7854   -7863       2    7821    7854   -7836   -7857       2
    7797    7800   -7818   -7833       2    7788    7794   -7809   -7830       2
    7785    7818   -7800   -7821       2    7779    7806   -7788   -7809       2
    7776    7794   -7782   -7797       2    7779    7782   -7776   -7785       2
    7941    7944   -7962   -7971       2    7929    7962   -7944   -7965       2
    7905    7908   -7926   -7941       2    7896    7902   -7917   -7938       2
    7893    7926   -7908   -7929       2    7887    7914   -7896   -7917       2
    7884    7902   -7890   -7905       2    7887    7890   -7884   -7893       2
    8049    8052   -8070   -8079       2    8037    8070   -8052   -8073       2
    8013    8016   -8034   -8049       2    8004    8010   -8025   -8046       2
    8001    8034   -8016   -8037       2    7995    8022   -8004   -8025       2
    7992    8010   -7998   -8013       2    7995    7998   -7992   -8001       2
    8157    8160   -8178   -8187       2    8145    8178   -8160   -8181       2
    8121    8124   -8142   -8157       2    8112    8118   -8133   -8154       2
    8109    8142   -8124   -8145       2    8103    8130   -8112   -8133       2
    8100    8118   -8106   -8121       2    8103    8106   -8100   -8109       2
    8265    8268   -8286   -8295       2    8253    8286   -8268   -8289       2
    8229    8232   -8250   -8265       2    8220    8226   -8241   -8262       2
    8217    8250   -8232   -8253       2    8211    8238   -8220   -8241       2
    8208    8226   -8214   -8229       2    8211    8214   -8208   -8217       2
    8373    8376   -8394   -8403       2    8361    8394   -8376   -8397       2
    8337    8340   -8358   -8373       2    8328    8334   -8349   -8370       2
    8325    8358   -8340   -8361       2    8319    8346   -8328   -8349       2
    8316    8334   -8322   -8337       2    8319    8322   -8316   -8325       2
    8481    8484   -8502   -8511       2    8469    8502   -8484   -8505       2
    8445    8448   -8466   -8481       2    8436    8442   -8457   -8478       2
    8433    8466   -8448   -8469       2    8427    8454   -8436   -8457       2
    8424    8442   -8430   -8445       2    8427    8430   -8424   -8433       2
    8589    8592   -8610   -8619       2    8577    8610   -8592   -8613       2
    8553    8556   -8574   -8589       2    8544    8550   -8565   -8586       2
    8541    8574   -8556   -8577       2    8535    8562   -8544   -8565       2
    8532    8550   -8538   -8553       2    8535    8538   -8532   -8541       2
    8697    8700   -8718   -8727       2    8685    8718   -8700   -8721       2
    8661    8664   -8682   -8697       2    8652    8658   -8673   -8694       2
    8649    8682   -8664   -8685       2    8643    8670   -8652   -8673       2
    8640    8658   -8646   -8661       2    8643    8646   -8640   -8649       2
    8805    8808   -8826   -8835       2    8793    8826   -8808   -8829       2
    8769    8772   -8790   -8805       2    8760    8766   -8781   -8802       2
    8757    8790   -8772   -8793       2    8751    8778   -8760   -8781       2
    8748    8766   -8754   -8769       2    8751    8754   -8748   -8757       2
    8913    8916   -8934   -8943       2    8901    8934   -8916   -8937       2
    8877    8880   -8898   -8913       2    8868    8874   -8889   -8910       2
    8865    8898   -8880   -8901       2    8859    8886   -8868   -8889       2
    8856    8874   -8862   -8877       2    8859    8862   -8856   -8865       2
    9021    9024   -9042   -9051       2    9009    9042   -9024   -9045       2
    8985    8988   -9006   -9021       2    8976    8982   -8997   -9018       2
    8973    9006   -8988   -9009       2    8967    8994   -8976   -8997       2
    8964    8982   -8970   -8985       2    8967    8970   -8964   -8973       2
    9129    9132   -9150   -9159       2    9117    9150   -9132   -9153       2
    9093    9096   -9114   -9129       2    9084    9090   -9105   -9126       2
    9081    9114   -9096   -9117       2    9075    9102   -9084   -9105       2
    9072    9090   -9078   -9093       2    9075    9078   -9072   -9081       2
    9237    9240   -9258   -9267       2    9225    9258   -9240   -9261       2
    9201    9204   -9222   -9237       2    9192    9198   -9213   -9234       2
    9189    9222   -9204   -9225       2    9183    9210   -9192   -9213       2
    9180    9198   -9186   -9201       2    9183    9186   -9180   -9189       2
    9345    9348   -9366   -9375       2    9333    9366   -9348   -9369       2
    9309    9312   -9330   -9345       2    9300    9306   -9321   -9342       2
    9297    9330   -9312   -9333       2    9291    9318   -9300   -9321       2
    9288    9306   -9294   -9309       2    9291    9294   -9288   -9297       2
    9453    9456   -9474   -9483       2    9441    9474   -9456   -9477       2
    9417    9420   -9438   -9453       2    9408    9414   -9429   -9450       2
    9405    9438   -9420   -9441       2    9399    9426   -9408   -9429       2
    9396    9414   -9402   -9417       2    9399    9402   -9396   -9405       2
    9561    9564   -9582   -9591       2    9549    9582   -9564   -9585       2
    9525    9528   -9546   -9561       2    9516    9522   -9537   -9558       2
    9513    9546   -9528   -9549       2    9507    9534   -9516   -9537       2
    9504    9522   -9510   -9525       2    9507    9510   -9504   -9513       2
    9669    9672   -9690   -9699       2    9657    9690   -9672   -9693       2
    9633    9636   -9654   -9669       2    9624    9630   -9645   -9666       2
    9621    9654   -9636   -9657       2    9615    9642   -9624   -9645       2
    9612    9630   -9618   -9633       2    9615    9618   -9612   -9621       2
    9777    9780   -9798   -9807       2    9765    9798   -9780   -9801       2
    9741    9744   -9762   -9777       2    9732    9738   -9753   -9774       2
    9729    9762   -9744   -9765       2    9723    9750   -9732   -9753       2
    9720    9738   -9726   -9741       2    9723    9726   -9720   -9729       2
    9885    9888   -9906   -9915       2    9873    9906   -9888   -9909       2
    9849    9852   -9870   -9885       2    9840    9846   -9861   -9882       2
    9837    9870   -9852   -9873       2    9831    9858   -9840   -9861       2
    9828    9846   -9834   -9849       2    9831    9834   -9828   -9837       2
    9993    9996  -10014  -10023       2    9981   10014   -9996  -10017       2
    9957    9960   -9978   -9993       2    9948    9954   -9969   -9990       2
    9945    9978   -9960   -9981       2    9939    9966   -9948   -9969       2
    9936    9954   -9942   -9957       2    9939    9942   -9936   -9945       2
   10101   10104  -10122  -10131       2   10089   10122  -10104  -10125       2
   10065   10068  -10086  -10101       2   10056   10062  -10077  -10098       2
   10053   10086  -10068  -10089       2   10047   10074  -10056  -10077       2
   10044   10062  -10050  -10065       2   10047   10050  -10044  -10053       2
   10209   10212  -10230  -10239       2   10197   10230  -10212  -10233       2
   10173   10176  -10194  -10209       2   10164   10170  -10185  -10206       2
   10161   10194  -10176  -10197       2   10155   10182  -10164  -10185       2
   10152   10170  -10158  -10173       2   10155   10158  -10152  -10161       2
   10317   10320  -10338  -10347       2   10305   10338  -10320  -10341       2
   10281   10284  -10302  -10317       2   10272   10278  -10293  -10314       2
   10269   10302  -10284  -10305       2   10263   10290  -10272  -10293       2
   10260   10278  -10266  -10281       2   10263   10266  -10260  -10269       2
   10425   10428  -10446  -10455       2   10413   10446  -10428  -10449       2
   10389   10392  -10410  -10425       2   10380   10386  -10401  -10422       2
   10377   10410  -10392  -10413       2   10371   10398  -10380  -10401       2
   10368   10386  -10374  -10389       2   10371   10374  -10368  -10377       2
   10533   10536  -10554  -10563       2   10521   10554  -10536  -10557       2
   10497   10500  -10518  -10533       2   10488   10494  -10509  -10530       2
   10485   10518  -10500  -10521       2   10479   10506  -10488  -10509       2
   10476   10494  -10482  -10497       2   10479   10482  -10476  -10485       2
   10641   10644  -10662  -10671       2   10629   10662  -10644  -10665       2
   10605   10608  -10626  -10641       2   10596   10602  -10617  -10638       2
   10593   10626  -10608  -10629       2   10587   10614  -10596  -10617       2
   10584   10602  -10590  -10605       2   10587   10590  -10584  -10593       2
   10749   10752  -10770  -10779       2   10737   10770  -10752  -10773       2
   10713   10716  -10734  -10749       2   10704   10710  -10725  -10746       2
   10701   10734  -10716  -10737       2   10695   10722  -10704  -10725       2
   10692   10710  -10698  -10713       2   10695   10698  -10692  -10701       2
   10857   10860  -10878  -10887       2   10845   10878  -10860  -10881       2
   10821   10824  -10842  -10857       2   10812   10818  -10833  -10854       2
   10809   10842  -10824  -10845       2   10803   10830  -10812  -10833       2
   10800   10818  -10806  -10821       2   10803   10806  -10800  -10809       2
   10965   10968  -10986  -10995       2   10953   10986  -10968  -10989       2
   10929   10932  -10950  -10965       2   10920   10926  -10941  -10962       2
   10917   10950  -10932  -10953       2   10911   10938  -10920  -10941       2
   10908   10926  -10914  -10929       2   10911   10914  -10908  -10917       2
   11073   11076  -11094  -11103       2   11061   11094  -11076  -11097       2
   11037   11040  -11058  -11073       2   11028   11034  -11049  -11070       2
   11025   11058  -11040  -11061       2   11019   11046  -11028  -11049       2
   11016   11034  -11022  -11037       2   11019   11022  -11016  -11025       2
   11181   11184  -11202  -11211       2   11169   11202  -11184  -11205       2
   11145   11148  -11166  -11181       2   11136   11142  -11157  -11178       2
   11133   11166  -11148  -11169       2   11127   11154  -11136  -11157       2
   11124   11142  -11130  -11145       2   11127   11130  -11124  -11133       2
   11289   11292  -11310  -11319       2   11277   11310  -11292  -11313       2
   11253   11256  -11274  -11289       2   11244   11250  -11265  -11286       2
   11241   11274  -11256  -11277       2   11235   11262  -11244  -11265       2
   11232   11250  -11238  -11253       2   11235   11238  -11232  -11241       2
   11397   11400  -11418  -11427       2   11385   11418  -11400  -11421       2
   11361   11364  -11382  -11397       2   11352   11358  -11373  -11394       2
   11349   11382  -11364  -11385       2   11343   11370  -11352  -11373       2
   11340   11358  -11346  -11361       2   11343   11346  -11340  -11349       2
   11505   11508  -11526  -11535       2   11493   11526  -11508  -11529       2
   11469   11472  -11490  -11505       2   11460   11466  -11481  -11502       2
   11457   11490  -11472  -11493       2   11451   11478  -11460  -11481       2
   11448   11466  -11454  -11469       2   11451   11454  -11448  -11457       2
   11613   11616  -11634  -11643       2   11601   11634  -11616  -11637       2
   11577   11580  -11598  -11613       2   11568   11574  -11589  -11610       2
   11565   11598  -11580  -11601       2   11559   11586  -11568  -11589       2
   11556   11574  -11562  -11577       2   11559   11562  -11556  -11565       2
   11721   11724  -11742  -11751       2   11709   11742  -11724  -11745       2
   11685   11688  -11706  -11721       2   11676   11682  -11697  -11718       2
   11673   11706  -11688  -11709       2   11667   11694  -11676  -11697       2
   11664   11682  -11670  -11685       2   11667   11670  -11664  -11673       2
   11829   11832  -11850  -11859       2   11817   11850  -11832  -11853       2
   11793   11796  -11814  -11829       2   11784   11790  -11805  -11826       2
   11781   11814  -11796  -11817       2   11775   11802  -11784  -11805       2
   11772   11790  -11778  -11793       2   11775   11778  -11772  -11781       2
   11937   11940  -11958  -11967       2   11925   11958  -11940  -11961       2
   11901   11904  -11922  -11937       2   11892   11898  -11913  -11934       2
   11889   11922  -11904  -11925       2   11883   11910  -11892  -11913       2
   11880   11898  -11886  -11901       2   11883   11886  -11880  -11889       2
   12045   12048  -12066  -12075       2   12033   12066  -12048  -12069       2
   12009   12012  -12030  -12045       2   12000   12006  -12021  -12042       2
   11997   12030  -12012  -12033       2   11991   12018  -12000  -12021       2
   11988   12006  -11994  -12009       2   11991   11994  -11988  -11997       2
   12153   12156  -12174  -12183       2   12141   12174  -12156  -12177       2
   12117   12120  -12138  -12153       2   12108   12114  -12129  -12150       2
   12105   12138  -12120  -12141       2   12099   12126  -12108  -12129       2
   12096   12114  -12102  -12117       2   12099   12102  -12096  -12105       2
   12261   12264  -12282  -12291       2   12249   12282  -12264  -12285       2
   12225   12228  -12246  -12261       2   12216   12222  -12237  -12258       2
   12213   12246  -12228  -12249       2   12207   12234  -12216  -12237       2
   12204   12222  -12210  -12225       2   12207   12210  -12204  -12213       2
   12369   12372  -12390  -12399       2   12357   12390  -12372  -12393       2
   12333   12336  -12354  -12369       2   12324   12330  -12345  -12366       2
   12321   12354  -12336  -12357       2   12315   12342  -12324  -12345       2
   12312   12330  -12318  -12333       2   12315   12318  -12312  -12321       2
   12477   12480  -12498  -12507       2   12465   12498  -12480  -12501       2
   12441   12444  -12462  -12477       2   12432   12438  -12453  -12474       2
   12429   12462  -12444  -12465       2   12423   12450  -12432  -12453       2
   12420   12438  -12426  -12441       2   12423   12426  -12420  -12429       2
   12585   12588  -12606  -12615       2   12573   12606  -12588  -12609       2
   12549   12552  -12570  -12585       2   12540   12546  -12561  -12582       2
   12537   12570  -12552  -12573       2   12531   12558  -12540  -12561       2
   12528   12546  -12534  -12549       2   12531   12534  -12528  -12537       2
   12693   12696  -12714  -12723       2   12681   12714  -12696  -12717       2
   12657   12660  -12678  -12693       2   12648   12654  -12669  -12690       2
   12645   12678  -12660  -12681       2   12639   12666  -12648  -12669       2
   12636   12654  -12642  -12657       2   12639   12642  -12636  -12645       2
   12801   12804  -12822  -12831       2   12789   12822  -12804  -12825       2
   12765   12768  -12786  -12801       2   12756   12762  -12777  -12798       2
   12753   12786  -12768  -12789       2   12747   12774  -12756  -12777       2
   12744   12762  -12750  -12765       2   12747   12750  -12744  -12753       2
   12909   12912  -12930  -12939       2   12897   12930  -12912  -12933       2
   12873   12876  -12894  -12909       2   12864   12870  -12885  -12906       2
   12861   12894  -12876  -12897       2   12855   12882  -12864  -12885       2
   12852   12870  -12858  -12873       2   12855   12858  -12852  -12861       2
   13017   13020  -13038  -13047       2   13005   13038  -13020  -13041       2
   12981   12984  -13002  -13017       2   12972   12978  -12993  -13014       2
   12969   13002  -12984  -13005       2   12963   12990  -12972  -12993       2
   12960   12978  -12966  -12981       2   12963   12966  -12960  -12969       2
   13125   13128  -13146  -13155       2   13113   13146  -13128  -13149       2
   13089   13092  -13110  -13125       2   13080   13086  -13101  -13122       2
   13077   13110  -13092  -13113       2   13071   13098  -13080  -13101       2
   13068   13086  -13074  -13089       2   13071   13074  -13068  -13077       2
   13233   13236  -13254  -13263       2   13221   13254  -13236  -13257       2
   13197   13200  -13218  -13233       2   13188   13194  -13209  -13230       2
   13185   13218  -13200  -13221       2   13179   13206  -13188  -13209       2
   13176   13194  -13182  -13197       2   13179   13182  -13176  -13185       2
   13341   13344  -13362  -13371       2   13329   13362  -13344  -13365       2
   13305   13308  -13326  -13341       2   13296   13302  -13317  -13338       2
   13293   13326  -13308  -13329       2   13287   13314  -13296  -13317       2
   13284   13302  -13290  -13305       2   13287   13290  -13284  -13293       2
   13449   13452  -13470  -13479       2   13437   13470  -13452  -13473       2
   13413   13416  -13434  -13449       2   13404   13410  -13425  -13446       2
   13401   13434  -13416  -13437       2   13395   13422  -13404  -13425       2
   13392   13410  -13398  -13413       2   13395   13398  -13392  -13401       2
   13557   13560  -13578  -13587       2   13545   13578  -13560  -13581       2
   13521   13524  -13542  -13557       2   13512   13518  -13533  -13554       2
   13509   13542  -13524  -13545       2   13503   13530  -13512  -13533       2
   13500   13518  -13506  -13521       2   13503   13506  -13500  -13509       2
   13665   13668  -13686  -13695       2   13653   13686  -13668  -13689       2
   13629   13632  -13650  -13665       2   13620   13626  -13641  -13662       2
   13617   13650  -13632  -13653       2   13611   13638  -13620  -13641       2
   13608   13626  -13614  -13629       2   13611   13614  -13608  -13617       2
   13773   13776  -13794  -13803       2   13761   13794  -13776  -13797       2
   13737   13740  -13758  -13773       2   13728   13734  -13749  -13770       2
   13725   13758  -13740  -13761       2   13719   13746  -13728  -13749       2
   13716   13734  -13722  -13737       2   13719   13722  -13716  -13725       2
   13881   13884  -13902  -13911       2   13869   13902  -13884  -13905       2
   13845   13848  -13866  -13881       2   13836   13842  -13857  -13878       2
   13833   13866  -13848  -13869       2   13827   13854  -13836  -13857       2
   13824   13842  -13830  -13845       2   13827   13830  -13824  -13833       2
   13989   13992  -14010  -14019       2   13977   14010  -13992  -14013       2
   13953   13956  -13974  -13989       2   13944   13950  -13965  -13986       2
   13941   13974  -13956  -13977       2   13935   13962  -13944  -13965       2
   13932   13950  -13938  -13953       2   13935   13938  -13932  -13941       2
   14097   14100  -14118  -14127       2   14085   14118  -14100  -14121       2
   14061   14064  -14082  -14097       2   14052   14058  -14073  -14094       2
   14049   14082  -14064  -14085       2   14043   14070  -14052  -14073       2
   14040   14058  -14046  -14061       2   14043   14046  -14040  -14049       2
   14205   14208  -14226  -14235       2   14193   14226  -14208  -14229       2
   14169   14172  -14190  -14205       2   14160   14166  -14181  -14202       2
   14157   14190  -14172  -14193       2   14151   14178  -14160  -14181       2
   14148   14166  -14154  -14169       2   14151   14154  -14148  -14157       2
   14313   14316  -14334  -14343       2   14301   14334  -14316  -14337       2
   14277   14280  -14298  -14313       2   14268   14274  -14289  -14310       2
   14265   14298  -14280  -14301       2   14259   14286  -14268  -14289       2
   14256   14274  -14262  -14277       2   14259   14262  -14256  -14265       2
   14421   14424  -14442  -14451       2   14409   14442  -14424  -14445       2
   14385   14388  -14406  -14421       2   14376   14382  -14397  -14418       2
   14373   14406  -14388  -14409       2   14367   14394  -14376  -14397       2
   14364   14382  -14370  -14385       2   14367   14370  -14364  -14373       2
   14529   14532  -14550  -14559       2   14517   14550  -14532  -14553       2
   14493   14496  -14514  -14529       2   14484   14490  -14505  -14526       2
   14481   14514  -14496  -14517       2   14475   14502  -14484  -14505       2
   14472   14490  -14478  -14493       2   14475   14478  -14472  -14481       2
   14637   14640  -14658  -14667       2   14625   14658  -14640  -14661       2
   14601   14604  -14622  -14637       2   14592   14598  -14613  -14634       2
   14589   14622  -14604  -14625       2   14583   14610  -14592  -14613       2
   14580   14598  -14586  -14601       2   14583   14586  -14580  -14589       2
   14745   14748  -14766  -14775       2   14733   14766  -14748  -14769       2
   14709   14712  -14730  -14745       2   14700   14706  -14721  -14742       2
   14697   14730  -14712  -14733       2   14691   14718  -14700  -14721       2
   14688   14706  -14694  -14709       2   14691   14694  -14688  -14697       2
   14853   14856  -14874  -14883       2   14841   14874  -14856  -14877       2
   14817   14820  -14838  -14853       2   14808   14814  -14829  -14850       2
   14805   14838  -14820  -14841       2   14799   14826  -14808  -14829       2
   14796   14814  -14802  -14817       2   14799   14802  -14796  -14805       2
   14961   14964  -14982  -14991       2   14949   14982  -14964  -14985       2
   14925   14928  -14946  -14961       2   14916   14922  -14937  -14958       2
   14913   14946  -14928  -14949       2   14907   14934  -14916  -14937       2
   14904   14922  -14910  -14925       2   14907   14910  -14904  -14913       2
   15069   15072  -15090  -15099       2   15057   15090  -15072  -15093       2
   15033   15036  -15054  -15069       2   15024   15030  -15045  -15066       2
   15021   15054  -15036  -15057       2   15015   15042  -15024  -15045       2
   15012   15030  -15018  -15033       2   15015   15018  -15012  -15021       2
   15177   15180  -15198  -15207       2   15165   15198  -15180  -15201       2
   15141   15144  -15162  -15177       2   15132   15138  -15153  -15174       2
   15129   15162  -15144  -15165       2   15123   15150  -15132  -15153       2
   15120   15138  -15126  -15141       2   15123   15126  -15120  -15129       2
   15285   15288  -15306  -15315       2   15273   15306  -15288  -15309       2
   15249   15252  -15270  -15285       2   15240   15246  -15261  -15282       2
   15237   15270  -15252  -15273       2   15231   15258  -15240  -15261       2
   15228   15246  -15234  -15249       2   15231   15234  -15228  -15237       2
   15393   15396  -15414  -15423       2   15381   15414  -15396  -15417       2
   15357   15360  -15378  -15393       2   15348   15354  -15369  -15390       2
   15345   15378  -15360  -15381       2   15339   15366  -15348  -15369       2
   15336   15354  -15342  -15357       2   15339   15342  -15336  -15345       2
   15501   15504  -15522  -15531       2   15489   15522  -15504  -15525       2
   15465   15468  -15486  -15501       2   15456   15462  -15477  -15498       2
   15453   15486  -15468  -15489       2   15447   15474  -15456  -15477       2
   15444   15462  -15450  -15465       2   15447   15450  -15444  -15453       2
   15609   15612  -15630  -15639       2   15597   15630  -15612  -15633       2
   15573   15576  -15594  -15609       2   15564   15570  -15585  -15606       2
   15561   15594  -15576  -15597       2   15555   15582  -15564  -15585       2
   15552   15570  -15558  -15573       2   15555   15558  -15552  -15561       2
   15717   15720  -15738  -15747       2   15705   15738  -15720  -15741       2
   15681   15684  -15702  -15717       2   15672   15678  -15693  -15714       2
   15669   15702  -15684  -15705       2   15663   15690  -15672  -15693       2
   15660   15678  -15666  -15681       2   15663   15666  -15660  -15669       2
   15825   15828  -15846  -15855       2   15813   15846  -15828  -15849       2
   15789   15792  -15810  -15825       2   15780   15786  -15801  -15822       2
   15777   15810  -15792  -15813       2   15771   15798  -15780  -15801       2
   15768   15786  -15774  -15789       2   15771   15774  -15768  -15777       2
   15933   15936  -15954  -15963       2   15921   15954  -15936  -15957       2
   15897   15900  -15918  -15933       2   15888   15894  -15909  -15930       2
   15885   15918  -15900  -15921       2   15879   15906  -15888  -15909       2
   15876   15894  -15882  -15897       2   15879   15882  -15876  -15885       2
   16041   16044  -16062  -16071       2   16029   16062  -16044  -16065       2
   16005   16008  -16026  -16041       2   15996   16002  -16017  -16038       2
   15993   16026  -16008  -16029       2   15987   16014  -15996  -16017       2
   15984   16002  -15990  -16005       2   15987   15990  -15984  -15993       2
   16149   16152  -16170  -16179       2   16137   16170  -16152  -16173       2
   16113   16116  -16134  -16149       2   16104   16110  -16125  -16146       2
   16101   16134  -16116  -16137       2   16095   16122  -16104  -16125       2
   16092   16110  -16098  -16113       2   16095   16098  -16092  -16101       2
   16257   16260  -16278  -16287       2   16245   16278  -16260  -16281       2
   16221   16224  -16242  -16257       2   16212   16218  -16233  -16254       2
   16209   16242  -16224  -16245       2   16203   16230  -16212  -16233       2
   16200   16218  -16206  -16221       2   16203   16206  -16200  -16209       2
   16365   16368  -16386  -16395       2   16353   16386  -16368  -16389       2
   16329   16332  -16350  -16365       2   16320   16326  -16341  -16362       2
   16317   16350  -16332  -16353       2   16311   16338  -16320  -16341       2
   16308   16326  -16314  -16329       2   16311   16314  -16308  -16317       2
   16473   16476  -16494  -16503       2   16461   16494  -16476  -16497       2
   16437   16440  -16458  -16473       2   16428   16434  -16449  -16470       2
   16425   16458  -16440  -16461       2   16419   16446  -16428  -16449       2
   16416   16434  -16422  -16437       2   16419   16422  -16416  -16425       2
   16581   16584  -16602  -16611       2   16569   16602  -16584  -16605       2
   16545   16548  -16566  -16581       2   16536   16542  -16557  -16578       2
   16533   16566  -16548  -16569       2   16527   16554  -16536  -16557       2
   16524   16542  -16530  -16545       2   16527   16530  -16524  -16533       2
   16689   16692  -16710  -16719       2   16677   16710  -16692  -16713       2
   16653   16656  -16674  -16689       2   16644   16650  -16665  -16686       2
   16641   16674  -16656  -16677       2   16635   16662  -16644  -16665       2
   16632   16650  -16638  -16653       2   16635   16638  -16632  -16641       2
   16797   16800  -16818  -16827       2   16785   16818  -16800  -16821       2
   16761   16764  -16782  -16797       2   16752   16758  -16773  -16794       2
   16749   16782  -16764  -16785       2   16743   16770  -16752  -16773       2
   16740   16758  -16746  -16761       2   16743   16746  -16740  -16749       2
   16905   16908  -16926  -16935       2   16893   16926  -16908  -16929       2
   16869   16872  -16890  -16905       2   16860   16866  -16881  -16902       2
   16857   16890  -16872  -16893       2   16851   16878  -16860  -16881       2
   16848   16866  -16854  -16869       2   16851   16854  -16848  -16857       2
   17013   17016  -17034  -17043       2   17001   17034  -17016  -17037       2
   16977   16980  -16998  -17013       2   16968   16974  -16989  -17010       2
   16965   16998  -16980  -17001       2   16959   16986  -16968  -16989       2
   16956   16974  -16962  -16977       2   16959   16962  -16956  -16965       2
   17121   17124  -17142  -17151       2   17109   17142  -17124  -17145       2
   17085   17088  -17106  -17121       2   17076   17082  -17097  -17118       2
   17073   17106  -17088  -17109       2   17067   17094  -17076  -17097       2
   17064   17082  -17070  -17085       2   17067   17070  -17064  -17073       2
   17229   17232  -17250  -17259       2   17217   17250  -17232  -17253       2
   17193   17196  -17214  -17229       2   17184   17190  -17205  -17226       2
   17181   17214  -17196  -17217       2   17175   17202  -17184  -17205       2
   17172   17190  -17178  -17193       2   17175   17178  -17172  -17181       2
   17337   17340  -17358  -17367       2   17325   17358  -17340  -17361       2
   17301   17304  -17322  -17337       2   17292   17298  -17313  -17334       2
   17289   17322  -17304  -17325       2   17283   17310  -17292  -17313       2
   17280   17298  -17286  -17301       2   17283   17286  -17280  -17289       2
   17445   17448  -17466  -17475       2   17433   17466  -17448  -17469       2
   17409   17412  -17430  -17445       2   17400   17406  -17421  -17442       2
   17397   17430  -17412  -17433       2   17391   17418  -17400  -17421       2
   17388   17406  -17394  -17409       2   17391   17394  -17388  -17397       2
   17553   17556  -17574  -17583       2   17541   17574  -17556  -17577       2
   17517   17520  -17538  -17553       2   17508   17514  -17529  -17550       2
   17505   17538  -17520  -17541       2   17499   17526  -17508  -17529       2
   17496   17514  -17502  -17517       2   17499   17502  -17496  -17505       2
   17661   17664  -17682  -17691       2   17649   17682  -17664  -17685       2
   17625   17628  -17646  -17661       2   17616   17622  -17637  -17658       2
   17613   17646  -17628  -17649       2   17607   17634  -17616  -17637       2
   17604   17622  -17610  -17625       2   17607   17610  -17604  -17613       2
   17769   17772  -17790  -17799       2   17757   17790  -17772  -17793       2
   17733   17736  -17754  -17769       2   17724   17730  -17745  -17766       2
   17721   17754  -17736  -17757       2   17715   17742  -17724  -17745       2
   17712   17730  -17718  -17733       2   17715   17718  -17712  -17721       2
   17877   17880  -17898  -17907       2   17865   17898  -17880  -17901       2
   17841   17844  -17862  -17877       2   17832   17838  -17853  -17874       2
   17829   17862  -17844  -17865       2   17823   17850  -17832  -17853       2
   17820   17838  -17826  -17841       2   17823   17826  -17820  -17829       2
   17985   17988  -18006  -18015       2   17973   18006  -17988  -18009       2
   17949   17952  -17970  -17985       2   17940   17946  -17961  -17982       2
   17937   17970  -17952  -17973       2   17931   17958  -17940  -17961       2
   17928   17946  -17934  -17949       2   17931   17934  -17928  -17937       2
   18093   18096  -18114  -18123       2   18081   18114  -18096  -18117       2
   18057   18060  -18078  -18093       2   18048   18054  -18069  -18090       2
   18045   18078  -18060  -18081       2   18039   18066  -18048  -18069       2
   18036   18054  -18042  -18057       2   18039   18042  -18036  -18045       2
   18201   18204  -18222  -18231       2   18189   18222  -18204  -18225       2
   18165   18168  -18186  -18201       2   18156   18162  -18177  -18198       2
   18153   18186  -18168  -18189       2   18147   18174  -18156  -18177       2
   18144   18162  -18150  -18165       2   18147   18150  -18144  -18153       2
   18309   18312  -18330  -18339       2   18297   18330  -18312  -18333       2
   18273   18276  -18294  -18309       2   18264   18270  -18285  -18306       2
   18261   18294  -18276  -18297       2   18255   18282  -18264  -18285       2
   18252   18270  -18258  -18273       2   18255   18258  -18252  -18261       2
   18417   18420  -18438  -18447       2   18405   18438  -18420  -18441       2
   18381   18384  -18402  -18417       2   18372   18378  -18393  -18414       2
   18369   18402  -18384  -18405       2   18363   18390  -18372  -18393       2
   18360   18378  -18366  -18381       2   18363   18366  -18360  -18369       2
   18525   18528  -18546  -18555       2   18513   18546  -18528  -18549       2
   18489   18492  -18510  -18525       2   18480   18486  -18501  -18522       2
   18477   18510  -18492  -18513       2   18471   18498  -18480  -18501       2
   18468   18486  -18474  -18489       2   18471   18474  -18468  -18477       2
   18633   18636  -18654  -18663       2   18621   18654  -18636  -18657       2
   18597   18600  -18618  -18633       2   18588   18594  -18609  -18630       2
   18585   18618  -18600  -18621       2   18579   18606  -18588  -18609       2
   18576   18594  -18582  -18597       2   18579   18582  -18576  -18585       2
   18741   18744  -18762  -18771       2   18729   18762  -18744  -18765       2
   18705   18708  -18726  -18741       2   18696   18702  -18717  -18738       2
   18693   18726  -18708  -18729       2   18687   18714  -18696  -18717       2
   18684   18702  -18690  -18705       2   18687   18690  -18684  -18693       2
   18849   18852  -18870  -18879       2   18837   18870  -18852  -18873       2
   18813   18816  -18834  -18849       2   18804   18810  -18825  -18846       2
   18801   18834  -18816  -18837       2   18795   18822  -18804  -18825       2
   18792   18810  -18798  -18813       2   18795   18798  -18792  -18801       2
   18957   18960  -18978  -18987       2   18945   18978  -18960  -18981       2
   18921   18924  -18942  -18957       2   18912   18918  -18933  -18954       2
   18909   18942  -18924  -18945       2   18903   18930  -18912  -18933       2
   18900   18918  -18906  -18921       2   18903   18906  -18900  -18909       2
   19065   19068  -19086  -19095       2   19053   19086  -19068  -19089       2
   19029   19032  -19050  -19065       2   19020   19026  -19041  -19062       2
   19017   19050  -19032  -19053       2   19011   19038  -19020  -19041       2
   19008   19026  -19014  -19029       2   19011   19014  -19008  -19017       2
   19173   19176  -19194  -19203       2   19161   19194  -19176  -19197       2
   19137   19140  -19158  -19173       2   19128   19134  -19149  -19170       2
   19125   19158  -19140  -19161       2   19119   19146  -19128  -19149       2
   19116   19134  -19122  -19137       2   19119   19122  -19116  -19125       2
   19281   19284  -19302  -19311       2   19269   19302  -19284  -19305       2
   19245   19248  -19266  -19281       2   19236   19242  -19257  -19278       2
   19233   19266  -19248  -19269       2   19227   19254  -19236  -19257       2
   19224   19242  -19230  -19245       2   19227   19230  -19224  -19233       2
   19389   19392  -19410  -19419       2   19377   19410  -19392  -19413       2
   19353   19356  -19374  -19389       2   19344   19350  -19365  -19386       2
   19341   19374  -19356  -19377       2   19335   19362  -19344  -19365       2
   19332   19350  -19338  -19353       2   19335   19338  -19332  -19341       2
   19497   19500  -19518  -19527       2   19485   19518  -19500  -19521       2
   19461   19464  -19482  -19497       2   19452   19458  -19473  -19494       2
   19449   19482  -19464  -19485       2   19443   19470  -19452  -19473       2
   19440   19458  -19446  -19461       2   19443   19446  -19440  -19449       2
   19605   19608  -19626  -19635       2   19593   19626  -19608  -19629       2
   19569   19572  -19590  -19605       2   19560   19566  -19581  -19602       2
   19557   19590  -19572  -19593       2   19551   19578  -19560  -19581       2
   19548   19566  -19554  -19569       2   19551   19554  -19548  -19557       2
   19713   19716  -19734  -19743       2   19701   19734  -19716  -19737       2
   19677   19680  -19698  -19713       2   19668   19674  -19689  -19710       2
   19665   19698  -19680  -19701       2   19659   19686  -19668  -19689       2
   19656   19674  -19662  -19677       2   19659   19662  -19656  -19665       2
   19821   19824  -19842  -19851       2   19809   19842  -19824  -19845       2
   19785   19788  -19806  -19821       2   19776   19782  -19797  -19818       2
   19773   19806  -19788  -19809       2   19767   19794  -19776  -19797       2
   19764   19782  -19770  -19785       2   19767   19770  -19764  -19773       2
   19929   19932  -19950  -19959       2   19917   19950  -19932  -19953       2
   19893   19896  -19914  -19929       2   19884   19890  -19905  -19926       2
   19881   19914  -19896  -19917       2   19875   19902  -19884  -19905       2
   19872   19890  -19878  -19893       2   19875   19878  -19872  -19881       2
   20037   20040  -20058  -20067       2   20025   20058  -20040  -20061       2
   20001   20004  -20022  -20037       2   19992   19998  -20013  -20034       2
   19989   20022  -20004  -20025       2   19983   20010  -19992  -20013       2
   19980   19998  -19986  -20001       2   19983   19986  -19980  -19989       2
   20145   20148  -20166  -20175       2   20133   20166  -20148  -20169       2
   20109   20112  -20130  -20145       2   20100   20106  -20121  -20142       2
   20097   20130  -20112  -20133       2   20091   20118  -20100  -20121       2
   20088   20106  -20094  -20109       2   20091   20094  -20088  -20097       2
   20253   20256  -20274  -20283       2   20241   20274  -20256  -20277       2
   20217   20220  -20238  -20253       2   20208   20214  -20229  -20250       2
   20205   20238  -20220  -20241       2   20199   20226  -20208  -20229       2
   20196   20214  -20202  -20217       2   20199   20202  -20196  -20205       2
   20361   20364  -20382  -20391       2   20349   20382  -20364  -20385       2
   20325   20328  -20346  -20361       2   20316   20322  -20337  -20358       2
   20313   20346  -20328  -20349       2   20307   20334  -20316  -20337       2
   20304   20322  -20310  -20325       2   20307   20310  -20304  -20313       2
   20469   20472  -20490  -20499       2   20457   20490  -20472  -20493       2
   20433   20436  -20454  -20469       2   20424   20430  -20445  -20466       2
   20421   20454  -20436  -20457       2   20415   20442  -20424  -20445       2
   20412   20430  -20418  -20433       2   20415   20418  -20412  -20421       2
   20577   20580  -20598  -20607       2   20565   20598  -20580  -20601       2
   20541   20544  -20562  -20577       2   20532   20538  -20553  -20574       2
   20529   20562  -20544  -20565       2   20523   20550  -20532  -20553       2
   20520   20538  -20526  -20541       2   20523   20526  -20520  -20529       2
   20685   20688  -20706  -20715       2   20673   20706  -20688  -20709       2
   20649   20652  -20670  -20685       2   20640   20646  -20661  -20682       2
   20637   20670  -20652  -20673       2   20631   20658  -20640  -20661       2
   20628   20646  -20634  -20649       2   20631   20634  -20628  -20637       2
   20793   20796  -20814  -20823       2   20781   20814  -20796  -20817       2
   20757   20760  -20778  -20793       2   20748   20754  -20769  -20790       2
   20745   20778  -20760  -20781       2   20739   20766  -20748  -20769       2
   20736   20754  -20742  -20757       2   20739   20742  -20736  -20745       2
   20901   20904  -20922  -20931       2   20889   20922  -20904  -20925       2
   20865   20868  -20886  -20901       2   20856   20862  -20877  -20898       2
   20853   20886  -20868  -20889       2   20847   20874  -20856  -20877       2
   20844   20862  -20850  -20865       2   20847   20850  -20844  -20853       2
   21009   21012  -21030  -21039       2   20997   21030  -21012  -21033       2
   20973   20976  -20994  -21009       2   20964   20970  -20985  -21006       2
   20961   20994  -20976  -20997       2   20955   20982  -20964  -20985       2
   20952   20970  -20958  -20973       2   20955   20958  -20952  -20961       2
   21117   21120  -21138  -21147       2   21105   21138  -21120  -21141       2
   21081   21084  -21102  -21117       2   21072   21078  -21093  -21114       2
   21069   21102  -21084  -21105       2   21063   21090  -21072  -21093       2
   21060   21078  -21066  -21081       2   21063   21066  -21060  -21069       2
   21225   21228  -21246  -21255       2   21213   21246  -21228  -21249       2
   21189   21192  -21210  -21225       2   21180   21186  -21201  -21222       2
   21177   21210  -21192  -21213       2   21171   21198  -21180  -21201       2
   21168   21186  -21174  -21189       2   21171   21174  -21168  -21177       2
   21333   21336  -21354  -21363       2   21321   21354  -21336  -21357       2
   21297   21300  -21318  -21333       2   21288   21294  -21309  -21330       2
   21285   21318  -21300  -21321       2   21279   21306  -21288  -21309       2
   21276   21294  -21282  -21297       2   21279   21282  -21276  -21285       2
   21441   21444  -21462  -21471       2   21429   21462  -21444  -21465       2
   21405   21408  -21426  -21441       2   21396   21402  -21417  -21438       2
   21393   21426  -21408  -21429       2   21387   21414  -21396  -21417       2
   21384   21402  -21390  -21405       2   21387   21390  -21384  -21393       2
   21549   21552  -21570  -21579       2   21537   21570  -21552  -21573       2
   21513   21516  -21534  -21549       2   21504   21510  -21525  -21546       2
   21501   21534  -21516  -21537       2   21495   21522  -21504  -21525       2
   21492   21510  -21498  -21513       2   21495   21498  -21492  -21501       2
   21657   21660  -21678  -21687       2   21645   21678  -21660  -21681       2
   21621   21624  -21642  -21657       2   21612   21618  -21633  -21654       2
   21609   21642  -21624  -21645       2   21603   21630  -21612  -21633       2
   21600   21618  -21606  -21621       2   21603   21606  -21600  -21609       2
   21765   21768  -21786  -21795       2   21753   21786  -21768  -21789       2
   21729   21732  -21750  -21765       2   21720   21726  -21741  -21762       2
   21717   21750  -21732  -21753       2   21711   21738  -21720  -21741       2
   21708   21726  -21714  -21729       2   21711   21714  -21708  -21717       2
   21873   21876  -21894  -21903       2   21861   21894  -21876  -21897       2
   21837   21840  -21858  -21873       2   21828   21834  -21849  -21870       2
   21825   21858  -21840  -21861       2   21819   21846  -21828  -21849       2
   21816   21834  -21822  -21837       2   21819   21822  -21816  -21825       2
   21981   21984  -22002  -22011       2   21969   22002  -21984  -22005       2
   21945   21948  -21966  -21981       2   21936   21942  -21957  -21978       2
   21933   21966  -21948  -21969       2   21927   21954  -21936  -21957       2
   21924   21942  -21930  -21945       2   21927   21930  -21924  -21933       2
   22089   22092  -22110  -22119       2   22077   22110  -22092  -22113       2
   22053   22056  -22074  -22089       2   22044   22050  -22065  -22086       2
   22041   22074  -22056  -22077       2   22035   22062  -22044  -22065       2
   22032   22050  -22038  -22053       2   22035   22038  -22032  -22041       2
   22197   22200  -22218  -22227       2   22185   22218  -22200  -22221       2
   22161   22164  -22182  -22197       2   22152   22158  -22173  -22194       2
   22149   22182  -22164  -22185       2   22143   22170  -22152  -22173       2
   22140   22158  -22146  -22161       2   22143   22146  -22140  -22149       2
   22305   22308  -22326  -22335       2   22293   22326  -22308  -22329       2
   22269   22272  -22290  -22305       2   22260   22266  -22281  -22302       2
   22257   22290  -22272  -22293       2   22251   22278  -22260  -22281       2
   22248   22266  -22254  -22269       2   22251   22254  -22248  -22257       2
   22413   22416  -22434  -22443       2   22401   22434  -22416  -22437       2
   22377   22380  -22398  -22413       2   22368   22374  -22389  -22410       2
   22365   22398  -22380  -22401       2   22359   22386  -22368  -22389       2
   22356   22374  -22362  -22377       2   22359   22362  -22356  -22365       2
   22521   22524  -22542  -22551       2   22509   22542  -22524  -22545       2
   22485   22488  -22506  -22521       2   22476   22482  -22497  -22518       2
   22473   22506  -22488  -22509       2   22467   22494  -22476  -22497       2
   22464   22482  -22470  -22485       2   22467   22470  -22464  -22473       2
   22629   22632  -22650  -22659       2   22617   22650  -22632  -22653       2
   22593   22596  -22614  -22629       2   22584   22590  -22605  -22626       2
   22581   22614  -22596  -22617       2   22575   22602  -22584  -22605       2
   22572   22590  -22578  -22593       2   22575   22578  -22572  -22581       2
   22737   22740  -22758  -22767       2   22725   22758  -22740  -22761       2
   22701   22704  -22722  -22737       2   22692   22698  -22713  -22734       2
   22689   22722  -22704  -22725       2   22683   22710  -22692  -22713       2
   22680   22698  -22686  -22701       2   22683   22686  -22680  -22689       2
   22845   22848  -22866  -22875       2   22833   22866  -22848  -22869       2
   22809   22812  -22830  -22845       2   22800   22806  -22821  -22842       2
   22797   22830  -22812  -22833       2   22791   22818  -22800  -22821       2
   22788   22806  -22794  -22809       2   22791   22794  -22788  -22797       2
   22953   22956  -22974  -22983       2   22941   22974  -22956  -22977       2
   22917   22920  -22938  -22953       2   22908   22914  -22929  -22950       2
   22905   22938  -22920  -22941       2   22899   22926  -22908  -22929       2
   22896   22914  -22902  -22917       2   22899   22902  -22896  -22905       2
   23061   23064  -23082  -23091       2   23049   23082  -23064  -23085       2
   23025   23028  -23046  -23061       2   23016   23022  -23037  -23058       2
   23013   23046  -23028  -23049       2   23007   23034  -23016  -23037       2
   23004   23022  -23010  -23025       2   23007   23010  -23004  -23013       2
   23169   23172  -23190  -23199       2   23157   23190  -23172  -23193       2
   23133   23136  -23154  -23169       2   23124   23130  -23145  -23166       2
   23121   23154  -23136  -23157       2   23115   23142  -23124  -23145       2
   23112   23130  -23118  -23133       2   23115   23118  -23112  -23121       2
   23277   23280  -23298  -23307       2   23265   23298  -23280  -23301       2
   23241   23244  -23262  -23277       2   23232   23238  -23253  -23274       2
   23229   23262  -23244  -23265       2   23223   23250  -23232  -23253       2
   23220   23238  -23226  -23241       2   23223   23226  -23220  -23229       2
   23385   23388  -23406  -23415       2   23373   23406  -23388  -23409       2
   23349   23352  -23370  -23385       2   23340   23346  -23361  -23382       2
   23337   23370  -23352  -23373       2   23331   23358  -23340  -23361       2
   23328   23346  -23334  -23349       2   23331   23334  -23328  -23337       2
   23493   23496  -23514  -23523       2   23481   23514  -23496  -23517       2
   23457   23460  -23478  -23493       2   23448   23454  -23469  -23490       2
   23445   23478  -23460  -23481       2   23439   23466  -23448  -23469       2
   23436   23454  -23442  -23457       2   23439   23442  -23436  -23445       2
   23601   23604  -23622  -23631       2   23589   23622  -23604  -23625       2
   23565   23568  -23586  -23601       2   23556   23562  -23577  -23598       2
   23553   23586  -23568  -23589       2   23547   23574  -23556  -23577       2
   23544   23562  -23550  -23565       2   23547   23550  -23544  -23553       2
   23709   23712  -23730  -23739       2   23697   23730  -23712  -23733       2
   23673   23676  -23694  -23709       2   23664   23670  -23685  -23706       2
   23661   23694  -23676  -23697       2   23655   23682  -23664  -23685       2
   23652   23670  -23658  -23673       2   23655   23658  -23652  -23661       2
   23817   23820  -23838  -23847       2   23805   23838  -23820  -23841       2
   23781   23784  -23802  -23817       2   23772   23778  -23793  -23814       2
   23769   23802  -23784  -23805       2   23763   23790  -23772  -23793       2
   23760   23778  -23766  -23781       2   23763   23766  -23760  -23769       2
   23925   23928  -23946  -23955       2   23913   23946  -23928  -23949       2
   23889   23892  -23910  -23925       2   23880   23886  -23901  -23922       2
   23877   23910  -23892  -23913       2   23871   23898  -23880  -23901       2
   23868   23886  -23874  -23889       2   23871   23874  -23868  -23877       2
   24033   24036  -24054  -24063       2   24021   24054  -24036  -24057       2
   23997   24000  -24018  -24033       2   23988   23994  -24009  -24030       2
   23985   24018  -24000  -24021       2   23979   24006  -23988  -24009       2
   23976   23994  -23982  -23997       2   23979   23982  -23976  -23985       2
   24141   24144  -24162  -24171       2   24129   24162  -24144  -24165       2
   24105   24108  -24126  -24141       2   24096   24102  -24117  -24138       2
   24093   24126  -24108  -24129       2   24087   24114  -24096  -24117       2
   24084   24102  -24090  -24105       2   24087   24090  -24084  -24093       2
   24249   24252  -24270  -24279       2   24237   24270  -24252  -24273       2
   24213   24216  -24234  -24249       2   24204   24210  -24225  -24246       2
   24201   24234  -24216  -24237       2   24195   24222  -24204  -24225       2
   24192   24210  -24198  -24213       2   24195   24198  -24192  -24201       2
   24357   24360  -24378  -24387       2   24345   24378  -24360  -24381       2
   24321   24324  -24342  -24357       2   24312   24318  -24333  -24354       2
   24309   24342  -24324  -24345       2   24303   24330  -24312  -24333       2
   24300   24318  -24306  -24321       2   24303   24306  -24300  -24309       2
   24465   24468  -24486  -24495       2   24453   24486  -24468  -24489       2
   24429   24432  -24450  -24465       2   24420   24426  -24441  -24462       2
   24417   24450  -24432  -24453       2   24411   24438  -24420  -24441       2
   24408   24426  -24414  -24429       2   24411   24414  -24408  -24417       2
   24573   24576  -24594  -24603       2   24561   24594  -24576  -24597       2
   24537   24540  -24558  -24573       2   24528   24534  -24549  -24570       2
   24525   24558  -24540  -24561       2   24519   24546  -24528  -24549       2
   24516   24534  -24522  -24537       2   24519   24522  -24516  -24525       2
   24681   24684  -24702  -24711       2   24669   24702  -24684  -24705       2
   24645   24648  -24666  -24681       2   24636   24642  -24657  -24678       2
   24633   24666  -24648  -24669       2   24627   24654  -24636  -24657       2
   24624   24642  -24630  -24645       2   24627   24630  -24624  -24633       2
   24789   24792  -24810  -24819       2   24777   24810  -24792  -24813       2
   24753   24756  -24774  -24789       2   24744   24750  -24765  -24786       2
   24741   24774  -24756  -24777       2   24735   24762  -24744  -24765       2
   24732   24750  -24738  -24753       2   24735   24738  -24732  -24741       2
   24897   24900  -24918  -24927       2   24885   24918  -24900  -24921       2
   24861   24864  -24882  -24897       2   24852   24858  -24873  -24894       2
   24849   24882  -24864  -24885       2   24843   24870  -24852  -24873       2
   24840   24858  -24846  -24861       2   24843   24846  -24840  -24849       2
   25005   25008  -25026  -25035       2   24993   25026  -25008  -25029       2
   24969   24972  -24990  -25005       2   24960   24966  -24981  -25002       2
   24957   24990  -24972  -24993       2   24951   24978  -24960  -24981       2
   24948   24966  -24954  -24969       2   24951   24954  -24948  -24957       2
   25113   25116  -25134  -25143       2   25101   25134  -25116  -25137       2
   25077   25080  -25098  -25113       2   25068   25074  -25089  -25110       2
   25065   25098  -25080  -25101       2   25059   25086  -25068  -25089       2
   25056   25074  -25062  -25077       2   25059   25062  -25056  -25065       2
   25221   25224  -25242  -25251       2   25209   25242  -25224  -25245       2
   25185   25188  -25206  -25221       2   25176   25182  -25197  -25218       2
   25173   25206  -25188  -25209       2   25167   25194  -25176  -25197       2
   25164   25182  -25170  -25185       2   25167   25170  -25164  -25173       2
   25329   25332  -25350  -25359       2   25317   25350  -25332  -25353       2
   25293   25296  -25314  -25329       2   25284   25290  -25305  -25326       2
   25281   25314  -25296  -25317       2   25275   25302  -25284  -25305       2
   25272   25290  -25278  -25293       2   25275   25278  -25272  -25281       2
   25437   25440  -25458  -25467       2   25425   25458  -25440  -25461       2
   25401   25404  -25422  -25437       2   25392   25398  -25413  -25434       2
   25389   25422  -25404  -25425       2   25383   25410  -25392  -25413       2
   25380   25398  -25386  -25401       2   25383   25386  -25380  -25389       2
   25545   25548  -25566  -25575       2   25533   25566  -25548  -25569       2
   25509   25512  -25530  -25545       2   25500   25506  -25521  -25542       2
   25497   25530  -25512  -25533       2   25491   25518  -25500  -25521       2
   25488   25506  -25494  -25509       2   25491   25494  -25488  -25497       2
   25653   25656  -25674  -25683       2   25641   25674  -25656  -25677       2
   25617   25620  -25638  -25653       2   25608   25614  -25629  -25650       2
   25605   25638  -25620  -25641       2   25599   25626  -25608  -25629       2
   25596   25614  -25602  -25617       2   25599   25602  -25596  -25605       2
   25761   25764  -25782  -25791       2   25749   25782  -25764  -25785       2
   25725   25728  -25746  -25761       2   25716   25722  -25737  -25758       2
   25713   25746  -25728  -25749       2   25707   25734  -25716  -25737       2
   25704   25722  -25710  -25725       2   25707   25710  -25704  -25713       2
   25869   25872  -25890  -25899       2   25857   25890  -25872  -25893       2
   25833   25836  -25854  -25869       2   25824   25830  -25845  -25866       2
   25821   25854  -25836  -25857       2   25815   25842  -25824  -25845       2
   25812   25830  -25818  -25833       2   25815   25818  -25812  -25821       2
   25977   25980  -25998  -26007       2   25965   25998  -25980  -26001       2
   25941   25944  -25962  -25977       2   25932   25938  -25953  -25974       2
   25929   25962  -25944  -25965       2   25923   25950  -25932  -25953       2
   25920   25938  -25926  -25941       2   25923   25926  -25920  -25929       2
   26085   26088  -26106  -26115       2   26073   26106  -26088  -26109       2
   26049   26052  -26070  -26085       2   26040   26046  -26061  -26082       2
   26037   26070  -26052  -26073       2   26031   26058  -26040  -26061       2
   26028   26046  -26034  -26049       2   26031   26034  -26028  -26037       2
   26193   26196  -26214  -26223       2   26181   26214  -26196  -26217       2
   26157   26160  -26178  -26193       2   26148   26154  -26169  -26190       2
   26145   26178  -26160  -26181       2   26139   26166  -26148  -26169       2
   26136   26154  -26142  -26157       2   26139   26142  -26136  -26145       2
   26301   26304  -26322  -26331       2   26289   26322  -26304  -26325       2
   26265   26268  -26286  -26301       2   26256   26262  -26277  -26298       2
   26253   26286  -26268  -26289       2   26247   26274  -26256  -26277       2
   26244   26262  -26250  -26265       2   26247   26250  -26244  -26253       2
   26409   26412  -26430  -26439       2   26397   26430  -26412  -26433       2
   26373   26376  -26394  -26409       2   26364   26370  -26385  -26406       2
   26361   26394  -26376  -26397       2   26355   26382  -26364  -26385       2
   26352   26370  -26358  -26373       2   26355   26358  -26352  -26361       2
   26517   26520  -26538  -26547       2   26505   26538  -26520  -26541       2
   26481   26484  -26502  -26517       2   26472   26478  -26493  -26514       2
   26469   26502  -26484  -26505       2   26463   26490  -26472  -26493       2
   26460   26478  -26466  -26481       2   26463   26466  -26460  -26469       2
   26625   26628  -26646  -26655       2   26613   26646  -26628  -26649       2
   26589   26592  -26610  -26625       2   26580   26586  -26601  -26622       2
   26577   26610  -26592  -26613       2   26571   26598  -26580  -26601       2
   26568   26586  -26574  -26589       2   26571   26574  -26568  -26577       2
   26733   26736  -26754  -26763       2   26721   26754  -26736  -26757       2
   26697   26700  -26718  -26733       2   26688   26694  -26709  -26730       2
   26685   26718  -26700  -26721       2   26679   26706  -26688  -26709       2
   26676   26694  -26682  -26697       2   26679   26682  -26676  -26685       2
   26841   26844  -26862  -26871       2   26829   26862  -26844  -26865       2
   26805   26808  -26826  -26841       2   26796   26802  -26817  -26838       2
   26793   26826  -26808  -26829       2   26787   26814  -26796  -26817       2
   26784   26802  -26790  -26805       2   26787   26790  -26784  -26793       2
   26949   26952  -26970  -26979       2   26937   26970  -26952  -26973       2
   26913   26916  -26934  -26949       2   26904   26910  -26925  -26946       2
   26901   26934  -26916  -26937       2   26895   26922  -26904  -26925       2
   26892   26910  -26898  -26913       2   26895   26898  -26892  -26901       2
%FLAG EXCLUDED_ATOMS_LIST                                                       
%FORMAT(10I8)                                                                   
       2       3       4       5       6       7       8       9      10      11
      12      13      14      15      16       3       4       5       6       7
       8       9      10      11      12      17      18      19       4       5
       6       7       8       9      10      12      13      14      15      19
      20       5       6       7       8       9      10      15      16      20
      21      22       6       7      11      12      13      17      18      19
      23      24      25      11      12       8      11      12      13      14
      15      19      23      25       9      12      13      14      15      16
      20      26      27      10      14      15      16      20      21      22
      26      27      28      15      16      12      17      18      19      23
      24      29      13      17      18      19      23      25      29      19
      15      20      16      20      21      22      26      27      30      20
      21      22      27      28      30      31      32      18      19      23
      24      25      29      23      24      23      24      25      29      21
      26      27      28      30      33      34      22      26      27      28
      30      31      32      33      34      35      27      28      24      25
      29      29      29      27      30      28      30      31      32      33
      34      36      30      31      32      33      35      36       0      31
      33      34      35      36      32      33      34      35      36      33
      35      34      35      36      36      36       0      38      39      40
      41      42      43      44      45      46      47      48      49      50
      51      52      39      40      41      42      43      44      45      46
      47      48      53      54      55      40      41      42      43      44
      45      46      48      49      50      51      55      56      41      42
      43      44      45      46      51      52      56      57      58      42
      43      47      48      49      53      54      55      59      60      61
      47      48      44      47      48      49      50      51      55      59
      61      45      48      49      50      51      52      56      62      63
      46      50      51      52      56      57      58      62      63      64
      51      52      48      53      54      55      59      60      65      49
      53      54      55      59      61      65      55      51      56      52
      56      57      58      62      63      66      56      57      58      63
      64      66      67      68      54      55      59      60      61      65
      59      60      59      60      61      65      57      62      63      64
      66      69      70      58      62      63      64      66      67      68
      69      70      71      63      64      60      61      65      65      65
      63      66      64      66      67      68      69      70      72      66
      67      68      69      71      72       0      67      69      70      71
      72      68      69      70      71      72      69      71      70      71
      72      72      72       0      74      75      76      77      78      79
      80      81      82      83      84      85      86      87      88      75
      76      77      78      79      80      81      82      83      84      89
      90      91      76      77      78      79      80      81      82      84
      85      86      87      91      92      77      78      79      80      81
      82      87      88      92      93      94      78      79      83      84
      85      89      90      91      95      96      97      83      84      80
      83      84      85      86      87      91      95      97      81      84
      85      86      87      88      92      98      99      82      86      87
      88      92      93      94      98      99     100      87      88      84
      89      90      91      95      96     101      85      89      90      91
      95      97     101      91      87      92      88      92      93      94
      98      99     102      92      93      94      99     100     102     103
     104      90      91      95      96      97     101      95      96      95
      96      97     101      93      98      99     100     102     105     106
      94      98      99     100     102     103     104     105     106     107
      99     100      96      97     101     101     101      99     102     100
     102     103     104     105     106     108     102     103     104     105
     107     108       0     103     105     106     107     108     104     105
     106     107     108     105     107     106     107     108     108     108
       0     110     111     112     113     114     115     116     117     118
     119     120     121     122     123     124     111     112     113     114
     115     116     117     118     119     120     125     126     127     112
     113     114     115     116     117     118     120     121     122     123
     127     128     113     114     115     116     117     118     123     124
     128     129     130     114     115     119     120     121     125     126
     127     131     132     133     119     120     116     119     120     121
     122     123     127     131     133     117     120     121     122     123
     124     128     134     135     118     122     123     124     128     129
     130     134     135     136     123     124     120     125     126     127
     131     132     137     121     125     126     127     131     133     137
     127     123     128     124     128     129     130     134     135     138
     128     129     130     135     136     138     139     140     126     127
     131     132     133     137     131     132     131     132     133     137
     129     134     135     136     138     141     142     130     134     135
     136     138     139     140     141     142     143     135     136     132
     133     137     137     137     135     138     136     138     139     140
     141     142     144     138     139     140     141     143     144       0
     139     141     142     143     144     140     141     142     143     144
     141     143     142     143     144     144     144       0     146     147
     148     149     150     151     152     153     154     155     156     157
     158     159     160     147     148     149     150     151     152     153
     154     155     156     161     162     163     148     149     150     151
     152     153     154     156     157     158     159     163     164     149
     150     151     152     153     154     159     160     164     165     166
     150     151     155     156     157     161     162     163     167     168
     169     155     156     152     155     156     157     158     159     163
     167     169     153     156     157     158     159     160     164     170
     171     154     158     159     160     164     165     166     170     171
     172     159     160     156     161     162     163     167     168     173
     157     161     162     163     167     169     173     163     159     164
     160     164     165     166     170     171     174     164     165     166
     171     172     174     175     176     162     163     167     168     169
     173     167     168     167     168     169     173     165     170     171
     172     174     177     178     166     170     171     172     174     175
     176     177     178     179     171     172     168     169     173     173
     173     171     174     172     174     175     176     177     178     180
     174     175     176     177     179     180       0     175     177     178
     179     180     176     177     178     179     180     177     179     178
     179     180     180     180       0     182     183     184     185     186
     187     188     189     190     191     192     193     194     195     196
     183     184     185     186     187     188     189     190     191     192
     197     198     199     184     185     186     187     188     189     190
     192     193     194     195     199     200     185     186     187     188
     189     190     195     196     200     201     202     186     187     191
     192     193     197     198     199     203     204     205     191     192
     188     191     192     193     194     195     199     203     205     189
     192     193     194     195     196     200     206     207     190     194
     195     196     200     201     202     206     207     208     195     196
     192     197     198     199     203     204     209     193     197     198
     199     203     205     209     199     195     200     196     200     201
     202     206     207     210     200     201     202     207     208     210
     211     212     198     199     203     204     205     209     203     204
     203     204     205     209     201     206     207     208     210     213
     214     202     206     207     208     210     211     212     213     214
     215     207     208     204     205     209     209     209     207     210
     208     210     211     212     213     214     216     210     211     212
     213     215     216       0     211     213     214     215     216     212
     213     214     215     216     213     215     214     215     216     216
     216       0     218     219     220     221     222     223     224     225
     226     227     228     229     230     231     232     219     220     221
     222     223     224     225     226     227     228     233     234     235
     220     221     222     223     224     225     226     228     229     230
     231     235     236     221     222     223     224     225     226     231
     232     236     237     238     222     223     227     228     229     233
     234     235     239     240     241     227     228     224     227     228
     229     230     231     235     239     241     225     228     229     230
     231     232     236     242     243     226     230     231     232     236
     237     238     242     243     244     231     232     228     233     234
     235     239     240     245     229     233     234     235     239     241
     245     235     231     236     232     236     237     238     242     243
     246     236     237     238     243     244     246     247     248     234
     235     239     240     241     245     239     240     239     240     241
     245     237     242     243     244     246     249     250     238     242
     243     244     246     247     248     249     250     251     243     244
     240     241     245     245     245     243     246     244     246     247
     248     249     250     252     246     247     248     249     251     252
       0     247     249     250     251     252     248     249     250     251
     252     249     251     250     251     252     252     252       0     254
     255     256     257     258     259     260     261     262     263     264
     265     266     267     268     255     256     257     258     259     260
     261     262     263     264     269     270     271     256     257     258
     259     260     261     262     264     265     266     267     271     272
     257     258     259     260     261     262     267     268     272     273
     274     258     259     263     264     265     269     270     271     275
     276     277     263     264     260     263     264     265     266     267
     271     275     277     261     264     265     266     267     268     272
     278     279     262     266     267     268     272     273     274     278
     279     280     267     268     264     269     270     271     275     276
     281     265     269     270     271     275     277     281     271     267
     272     268     272     273     274     278     279     282     272     273
     274     279     280     282     283     284     270     271     275     276
     277     281     275     276     275     276     277     281     273     278
     279     280     282     285     286     274     278     279     280     282
     283     284     285     286     287     279     280     276     277     281
     281     281     279     282     280     282     283     284     285     286
     288     282     283     284     285     287     288       0     283     285
     286     287     288     284     285     286     287     288     285     287
     286     287     288     288     288       0     290     291     292     293
     294     295     296     297     298     299     300     301     302     303
     304     291     292     293     294     295     296     297     298     299
     300     305     306     307     292     293     294     295     296     297
     298     300     301     302     303     307     308     293     294     295
     296     297     298     303     304     308     309     310     294     295
     299     300     301     305     306     307     311     312     313     299
     300     296     299     300     301     302     303     307     311     313
     297     300     301     302     303     304     308     314     315     298
     302     303     304     308     309     310     314     315     316     303
     304     300     305     306     307     311     312     317     301     305
     306     307     311     313     317     307     303     308     304     308
     309     310     314     315     318     308     309     310     315     316
     318     319     320     306     307     311     312     313     317     311
     312     311     312     313     317     309     314     315     316     318
     321     322     310     314     315     316     318     319     320     321
     322     323     315     316     312     313     317     317     317     315
     318     316     318     319     320     321     322     324     318     319
     320     321     323     324       0     319     321     322     323     324
     320     321     322     323     324     321     323     322     323     324
     324     324       0     326     327     328     329     330     331     332
     333     334     335     336     337     338     339     340     327     328
     329     330     331     332     333     334     335     336     341     342
     343     328     329     330     331     332     333     334     336     337
     338     339     343     344     329     330     331     332     333     334
     339     340     344     345     346     330     331     335     336     337
     341     342     343     347     348     349     335     336     332     335
     336     337     338     339     343     347     349     333     336     337
     338     339     340     344     350     351     334     338     339     340
     344     345     346     350     351     352     339     340     336     341
     342     343     347     348     353     337     341     342     343     347
     349     353     343     339     344     340     344     345     346     350
     351     354     344     345     346     351     352     354     355     356
     342     343     347     348     349     353     347     348     347     348
     349     353     345     350     351     352     354     357     358     346
     350     351     352     354     355     356     357     358     359     351
     352     348     349     353     353     353     351     354     352     354
     355     356     357     358     360     354     355     356     357     359
     360       0     355     357     358     359     360     356     357     358
     359     360     357     359     358     359     360     360     360       0
     362     363     364     365     366     367     368     369     370     371
     372     373     374     375     376     363     364     365     366     367
     368     369     370     371     372     377     378     379     364     365
     366     367     368     369     370     372     373     374     375     379
     380     365     366     367     368     369     370     375     376     380
     381     382     366     367     371     372     373     377     378     379
     383     384     385     371     372     368     371     372     373     374
     375     379     383     385     369     372     373     374     375     376
     380     386     387     370     374     375     376     380     381     382
     386     387     388     375     376     372     377     378     379     383
     384     389     373     377     378     379     383     385     389     379
     375     380     376     380     381     382     386     387     390     380
     381     382     387     388     390     391     392     378     379     383
     384     385     389     383     384     383     384     385     389     381
     386     387     388     390     393     394     382     386     387     388
     390     391     392     393     394     395     387     388     384     385
     389     389     389     387     390     388     390     391     392     393
     394     396     390     391     392     393     395     396       0     391
     393     394     395     396     392     393     394     395     396     393
     395     394     395     396     396     396       0     398     399     400
     401     402     403     404     405     406     407     408     409     410
     411     412     399     400     401     402     403     404     405     406
     407     408     413     414     415     400     401     402     403     404
     405     406     408     409     410     411     415     416     401     402
     403     404     405     406     411     412     416     417     418     402
     403     407     408     409     413     414     415     419     420     421
     407     408     404     407     408     409     410     411     415     419
     421     405     408     409     410     411     412     416     422     423
     406     410     411     412     416     417     418     422     423     424
     411     412     408     413     414     415     419     420     425     409
     413     414     415     419     421     425     415     411     416     412
     416     417     418     422     423     426     416     417     418     423
     424     426     427     428     414     415     419     420     421     425
     419     420     419     420     421     425     417     422     423     424
     426     429     430     418     422     423     424     426     427     428
     429     430     431     423     424     420     421     425     425     425
     423     426     424     426     427     428     429     430     432     426
     427     428     429     431     432       0     427     429     430     431
     432     428     429     430     431     432     429     431     430     431
     432     432     432       0     434     435     436     437     438     439
     440     441     442     443     444     445     446     447     448     435
     436     437     438     439     440     441     442     443     444     449
     450     451     436     437     438     439     440     441     442     444
     445     446     447     451     452     437     438     439     440     441
     442     447     448     452     453     454     438     439     443     444
     445     449     450     451     455     456     457     443     444     440
     443     444     445     446     447     451     455     457     441     444
     445     446     447     448     452     458     459     442     446     447
     448     452     453     454     458     459     460     447     448     444
     449     450     451     455     456     461     445     449     450     451
     455     457     461     451     447     452     448     452     453     454
     458     459     462     452     453     454     459     460     462     463
     464     450     451     455     456     457     461     455     456     455
     456     457     461     453     458     459     460     462     465     466
     454     458     459     460     462     463     464     465     466     467
     459     460     456     457     461     461     461     459     462     460
     462     463     464     465     466     468     462     463     464     465
     467     468       0     463     465     466     467     468     464     465
     466     467     468     465     467     466     467     468     468     468
       0     470     471     472     473     474     475     476     477     478
     479     480     481     482     483     484     471     472     473     474
     475     476     477     478     479     480     485     486     487     472
     473     474     475     476     477     478     480     481     482     483
     487     488     473     474     475     476     477     478     483     484
     488     489     490     474     475     479     480     481     485     486
     487     491     492     493     479     480     476     479     480     481
     482     483     487     491     493     477     480     481     482     483
     484     488     494     495     478     482     483     484     488     489
     490     494     495     496     483     484     480     485     486     487
     491     492     497     481     485     486     487     491     493     497
     487     483     488     484     488     489     490     494     495     498
     488     489     490     495     496     498     499     500     486     487
     491     492     493     497     491     492     491     492     493     497
     489     494     495     496     498     501     502     490     494     495
     496     498     499     500     501     502     503     495     496     492
     493     497     497     497     495     498     496     498     499     500
     501     502     504     498     499     500     501     503     504       0
     499     501     502     503     504     500     501     502     503     504
     501     503     502     503     504     504     504       0     506     507
     508     509     510     511     512     513     514     515     516     517
     518     519     520     507     508     509     510     511     512     513
     514     515     516     521     522     523     508     509     510     511
     512     513     514     516     517     518     519     523     524     509
     510     511     512     513     514     519     520     524     525     526
     510     511     515     516     517     521     522     523     527     528
     529     515     516     512     515     516     517     518     519     523
     527     529     513     516     517     518     519     520     524     530
     531     514     518     519     520     524     525     526     530     531
     532     519     520     516     521     522     523     527     528     533
     517     521     522     523     527     529     533     523     519     524
     520     524     525     526     530     531     534     524     525     526
     531     532     534     535     536     522     523     527     528     529
     533     527     528     527     528     529     533     525     530     531
     532     534     537     538     526     530     531     532     534     535
     536     537     538     539     531     532     528     529     533     533
     533     531     534     532     534     535     536     537     538     540
     534     535     536     537     539     540       0     535     537     538
     539     540     536     537     538     539     540     537     539     538
     539     540     540     540       0     542     543     544     545     546
     547     548     549     550     551     552     553     554     555     556
     543     544     545     546     547     548     549     550     551     552
     557     558     559     544     545     546     547     548     549     550
     552     553     554     555     559     560     545     546     547     548
     549     550     555     556     560     561     562     546     547     551
     552     553     557     558     559     563     564     565     551     552
     548     551     552     553     554     555     559     563     565     549
     552     553     554     555     556     560     566     567     550     554
     555     556     560     561     562     566     567     568     555     556
     552     557     558     559     563     564     569     553     557     558
     559     563     565     569     559     555     560     556     560     561
     562     566     567     570     560     561     562     567     568     570
     571     572     558     559     563     564     565     569     563     564
     563     564     565     569     561     566     567     568     570     573
     574     562     566     567     568     570     571     572     573     574
     575     567     568     564     565     569     569     569     567     570
     568     570     571     572     573     574     576     570     571     572
     573     575     576       0     571     573     574     575     576     572
     573     574     575     576     573     575     574     575     576     576
     576       0     578     579     580     581     582     583     584     585
     586     587     588     589     590     591     592     579     580     581
     582     583     584     585     586     587     588     593     594     595
     580     581     582     583     584     585     586     588     589     590
     591     595     596     581     582     583     584     585     586     591
     592     596     597     598     582     583     587     588     589     593
     594     595     599     600     601     587     588     584     587     588
     589     590     591     595     599     601     585     588     589     590
     591     592     596     602     603     586     590     591     592     596
     597     598     602     603     604     591     592     588     593     594
     595     599     600     605     589     593     594     595     599     601
     605     595     591     596     592     596     597     598     602     603
     606     596     597     598     603     604     606     607     608     594
     595     599     600     601     605     599     600     599     600     601
     605     597     602     603     604     606     609     610     598     602
     603     604     606     607     608     609     610     611     603     604
     600     601     605     605     605     603     606     604     606     607
     608     609     610     612     606     607     608     609     611     612
       0     607     609     610     611     612     608     609     610     611
     612     609     611     610     611     612     612     612       0     614
     615     616     617     618     619     620     621     622     623     624
     625     626     627     628     615     616     617     618     619     620
     621     622     623     624     629     630     631     616     617     618
     619     620     621     622     624     625     626     627     631     632
     617     618     619     620     621     622     627     628     632     633
     634     618     619     623     624     625     629     630     631     635
     636     637     623     624     620     623     624     625     626     627
     631     635     637     621     624     625     626     627     628     632
     638     639     622     626     627     628     632     633     634     638
     639     640     627     628     624     629     630     631     635     636
     641     625     629     630     631     635     637     641     631     627
     632     628     632     633     634     638     639     642     632     633
     634     639     640     642     643     644     630     631     635     636
     637     641     635     636     635     636     637     641     633     638
     639     640     642     645     646     634     638     639     640     642
     643     644     645     646     647     639     640     636     637     641
     641     641     639     642     640     642     643     644     645     646
     648     642     643     644     645     647     648       0     643     645
     646     647     648     644     645     646     647     648     645     647
     646     647     648     648     648       0     650     651     652     653
     654     655     656     657     658     659     660     661     662     663
     664     651     652     653     654     655     656     657     658     659
     660     665     666     667     652     653     654     655     656     657
     658     660     661     662     663     667     668     653     654     655
     656     657     658     663     664     668     669     670     654     655
     659     660     661     665     666     667     671     672     673     659
     660     656     659     660     661     662     663     667     671     673
     657     660     661     662     663     664     668     674     675     658
     662     663     664     668     669     670     674     675     676     663
     664     660     665     666     667     671     672     677     661     665
     666     667     671     673     677     667     663     668     664     668
     669     670     674     675     678     668     669     670     675     676
     678     679     680     666     667     671     672     673     677     671
     672     671     672     673     677     669     674     675     676     678
     681     682     670     674     675     676     678     679     680     681
     682     683     675     676     672     673     677     677     677     675
     678     676     678     679     680     681     682     684     678     679
     680     681     683     684       0     679     681     682     683     684
     680     681     682     683     684     681     683     682     683     684
     684     684       0     686     687     688     689     690     691     692
     693     694     695     696     697     698     699     700     687     688
     689     690     691     692     693     694     695     696     701     702
     703     688     689     690     691     692     693     694     696     697
     698     699     703     704     689     690     691     692     693     694
     699     700     704     705     706     690     691     695     696     697
     701     702     703     707     708     709     695     696     692     695
     696     697     698     699     703     707     709     693     696     697
     698     699     700     704     710     711     694     698     699     700
     704     705     706     710     711     712     699     700     696     701
     702     703     707     708     713     697     701     702     703     707
     709     713     703     699     704     700     704     705     706     710
     711     714     704     705     706     711     712     714     715     716
     702     703     707     708     709     713     707     708     707     708
     709     713     705     710     711     712     714     717     718     706
     710     711     712     714     715     716     717     718     719     711
     712     708     709     713     713     713     711     714     712     714
     715     716     717     718     720     714     715     716     717     719
     720       0     715     717     718     719     720     716     717     718
     719     720     717     719     718     719     720     720     720       0
     722     723     724     725     726     727     728     729     730     731
     732     733     734     735     736     723     724     725     726     727
     728     729     730     731     732     737     738     739     724     725
     726     727     728     729     730     732     733     734     735     739
     740     725     726     727     728     729     730     735     736     740
     741     742     726     727     731     732     733     737     738     739
     743     744     745     731     732     728     731     732     733     734
     735     739     743     745     729     732     733     734     735     736
     740     746     747     730     734     735     736     740     741     742
     746     747     748     735     736     732     737     738     739     743
     744     749     733     737     738     739     743     745     749     739
     735     740     736     740     741     742     746     747     750     740
     741     742     747     748     750     751     752     738     739     743
     744     745     749     743     744     743     744     745     749     741
     746     747     748     750     753     754     742     746     747     748
     750     751     752     753     754     755     747     748     744     745
     749     749     749     747     750     748     750     751     752     753
     754     756     750     751     752     753     755     756       0     751
     753     754     755     756     752     753     754     755     756     753
     755     754     755     756     756     756       0     758     759     760
     761     762     763     764     765     766     767     768     769     770
     771     772     759     760     761     762     763     764     765     766
     767     768     773     774     775     760     761     762     763     764
     765     766     768     769     770     771     775     776     761     762
     763     764     765     766     771     772     776     777     778     762
     763     767     768     769     773     774     775     779     780     781
     767     768     764     767     768     769     770     771     775     779
     781     765     768     769     770     771     772     776     782     783
     766     770     771     772     776     777     778     782     783     784
     771     772     768     773     774     775     779     780     785     769
     773     774     775     779     781     785     775     771     776     772
     776     777     778     782     783     786     776     777     778     783
     784     786     787     788     774     775     779     780     781     785
     779     780     779     780     781     785     777     782     783     784
     786     789     790     778     782     783     784     786     787     788
     789     790     791     783     784     780     781     785     785     785
     783     786     784     786     787     788     789     790     792     786
     787     788     789     791     792       0     787     789     790     791
     792     788     789     790     791     792     789     791     790     791
     792     792     792       0     794     795     796     797     798     799
     800     801     802     803     804     805     806     807     808     795
     796     797     798     799     800     801     802     803     804     809
     810     811     796     797     798     799     800     801     802     804
     805     806     807     811     812     797     798     799     800     801
     802     807     808     812     813     814     798     799     803     804
     805     809     810     811     815     816     817     803     804     800
     803     804     805     806     807     811     815     817     801     804
     805     806     807     808     812     818     819     802     806     807
     808     812     813     814     818     819     820     807     808     804
     809     810     811     815     816     821     805     809     810     811
     815     817     821     811     807     812     808     812     813     814
     818     819     822     812     813     814     819     820     822     823
     824     810     811     815     816     817     821     815     816     815
     816     817     821     813     818     819     820     822     825     826
     814     818     819     820     822     823     824     825     826     827
     819     820     816     817     821     821     821     819     822     820
     822     823     824     825     826     828     822     823     824     825
     827     828       0     823     825     826     827     828     824     825
     826     827     828     825     827     826     827     828     828     828
       0     830     831     832     833     834     835     836     837     838
     839     840     841     842     843     844     831     832     833     834
     835     836     837     838     839     840     845     846     847     832
     833     834     835     836     837     838     840     841     842     843
     847     848     833     834     835     836     837     838     843     844
     848     849     850     834     835     839     840     841     845     846
     847     851     852     853     839     840     836     839     840     841
     842     843     847     851     853     837     840     841     842     843
     844     848     854     855     838     842     843     844     848     849
     850     854     855     856     843     844     840     845     846     847
     851     852     857     841     845     846     847     851     853     857
     847     843     848     844     848     849     850     854     855     858
     848     849     850     855     856     858     859     860     846     847
     851     852     853     857     851     852     851     852     853     857
     849     854     855     856     858     861     862     850     854     855
     856     858     859     860     861     862     863     855     856     852
     853     857     857     857     855     858     856     858     859     860
     861     862     864     858     859     860     861     863     864       0
     859     861     862     863     864     860     861     862     863     864
     861     863     862     863     864     864     864       0     866     867
     868     869     870     871     872     873     874     875     876     877
     878     879     880     867     868     869     870     871     872     873
     874     875     876     881     882     883     868     869     870     871
     872     873     874     876     877     878     879     883     884     869
     870     871     872     873     874     879     880     884     885     886
     870     871     875     876     877     881     882     883     887     888
     889     875     876     872     875     876     877     878     879     883
     887     889     873     876     877     878     879     880     884     890
     891     874     878     879     880     884     885     886     890     891
     892     879     880     876     881     882     883     887     888     893
     877     881     882     883     887     889     893     883     879     884
     880     884     885     886     890     891     894     884     885     886
     891     892     894     895     896     882     883     887     888     889
     893     887     888     887     888     889     893     885     890     891
     892     894     897     898     886     890     891     892     894     895
     896     897     898     899     891     892     888     889     893     893
     893     891     894     892     894     895     896     897     898     900
     894     895     896     897     899     900       0     895     897     898
     899     900     896     897     898     899     900     897     899     898
     899     900     900     900       0     902     903     904     905     906
     907     908     909     910     911     912     913     914     915     916
     903     904     905     906     907     908     909     910     911     912
     917     918     919     904     905     906     907     908     909     910
     912     913     914     915     919     920     905     906     907     908
     909     910     915     916     920     921     922     906     907     911
     912     913     917     918     919     923     924     925     911     912
     908     911     912     913     914     915     919     923     925     909
     912     913     914     915     916     920     926     927     910     914
     915     916     920     921     922     926     927     928     915     916
     912     917     918     919     923     924     929     913     917     918
     919     923     925     929     919     915     920     916     920     921
     922     926     927     930     920     921     922     927     928     930
     931     932     918     919     923     924     925     929     923     924
     923     924     925     929     921     926     927     928     930     933
     934     922     926     927     928     930     931     932     933     934
     935     927     928     924     925     929     929     929     927     930
     928     930     931     932     933     934     936     930     931     932
     933     935     936       0     931     933     934     935     936     932
     933     934     935     936     933     935     934     935     936     936
     936       0     938     939     940     941     942     943     944     945
     946     947     948     949     950     951     952     939     940     941
     942     943     944     945     946     947     948     953     954     955
     940     941     942     943     944     945     946     948     949     950
     951     955     956     941     942     943     944     945     946     951
     952     956     957     958     942     943     947     948     949     953
     954     955     959     960     961     947     948     944     947     948
     949     950     951     955     959     961     945     948     949     950
     951     952     956     962     963     946     950     951     952     956
     957     958     962     963     964     951     952     948     953     954
     955     959     960     965     949     953     954     955     959     961
     965     955     951     956     952     956     957     958     962     963
     966     956     957     958     963     964     966     967     968     954
     955     959     960     961     965     959     960     959     960     961
     965     957     962     963     964     966     969     970     958     962
     963     964     966     967     968     969     970     971     963     964
     960     961     965     965     965     963     966     964     966     967
     968     969     970     972     966     967     968     969     971     972
       0     967     969     970     971     972     968     969     970     971
     972     969     971     970     971     972     972     972       0     974
     975     976     977     978     979     980     981     982     983     984
     985     986     987     988     975     976     977     978     979     980
     981     982     983     984     989     990     991     976     977     978
     979     980     981     982     984     985     986     987     991     992
     977     978     979     980     981     982     987     988     992     993
     994     978     979     983     984     985     989     990     991     995
     996     997     983     984     980     983     984     985     986     987
     991     995     997     981     984     985     986     987     988     992
     998     999     982     986     987     988     992     993     994     998
     999    1000     987     988     984     989     990     991     995     996
    1001     985     989     990     991     995     997    1001     991     987
     992     988     992     993     994     998     999    1002     992     993
     994     999    1000    1002    1003    1004     990     991     995     996
     997    1001     995     996     995     996     997    1001     993     998
     999    1000    1002    1005    1006     994     998     999    1000    1002
    1003    1004    1005    1006    1007     999    1000     996     997    1001
    1001    1001     999    1002    1000    1002    1003    1004    1005    1006
    1008    1002    1003    1004    1005    1007    1008       0    1003    1005
    1006    1007    1008    1004    1005    1006    1007    1008    1005    1007
    1006    1007    1008    1008    1008       0    1010    1011    1012    1013
    1014    1015    1016    1017    1018    1019    1020    1021    1022    1023
    1024    1011    1012    1013    1014    1015    1016    1017    1018    1019
    1020    1025    1026    1027    1012    1013    1014    1015    1016    1017
    1018    1020    1021    1022    1023    1027    1028    1013    1014    1015
    1016    1017    1018    1023    1024    1028    1029    1030    1014    1015
    1019    1020    1021    1025    1026    1027    1031    1032    1033    1019
    1020    1016    1019    1020    1021    1022    1023    1027    1031    1033
    1017    1020    1021    1022    1023    1024    1028    1034    1035    1018
    1022    1023    1024    1028    1029    1030    1034    1035    1036    1023
    1024    1020    1025    1026    1027    1031    1032    1037    1021    1025
    1026    1027    1031    1033    1037    1027    1023    1028    1024    1028
    1029    1030    1034    1035    1038    1028    1029    1030    1035    1036
    1038    1039    1040    1026    1027    1031    1032    1033    1037    1031
    1032    1031    1032    1033    1037    1029    1034    1035    1036    1038
    1041    1042    1030    1034    1035    1036    1038    1039    1040    1041
    1042    1043    1035    1036    1032    1033    1037    1037    1037    1035
    1038    1036    1038    1039    1040    1041    1042    1044    1038    1039
    1040    1041    1043    1044       0    1039    1041    1042    1043    1044
    1040    1041    1042    1043    1044    1041    1043    1042    1043    1044
    1044    1044       0    1046    1047    1048    1049    1050    1051    1052
    1053    1054    1055    1056    1057    1058    1059    1060    1047    1048
    1049    1050    1051    1052    1053    1054    1055    1056    1061    1062
    1063    1048    1049    1050    1051    1052    1053    1054    1056    1057
    1058    1059    1063    1064    1049    1050    1051    1052    1053    1054
    1059    1060    1064    1065    1066    1050    1051    1055    1056    1057
    1061    1062    1063    1067    1068    1069    1055    1056    1052    1055
    1056    1057    1058    1059    1063    1067    1069    1053    1056    1057
    1058    1059    1060    1064    1070    1071    1054    1058    1059    1060
    1064    1065    1066    1070    1071    1072    1059    1060    1056    1061
    1062    1063    1067    1068    1073    1057    1061    1062    1063    1067
    1069    1073    1063    1059    1064    1060    1064    1065    1066    1070
    1071    1074    1064    1065    1066    1071    1072    1074    1075    1076
    1062    1063    1067    1068    1069    1073    1067    1068    1067    1068
    1069    1073    1065    1070    1071    1072    1074    1077    1078    1066
    1070    1071    1072    1074    1075    1076    1077    1078    1079    1071
    1072    1068    1069    1073    1073    1073    1071    1074    1072    1074
    1075    1076    1077    1078    1080    1074    1075    1076    1077    1079
    1080       0    1075    1077    1078    1079    1080    1076    1077    1078
    1079    1080    1077    1079    1078    1079    1080    1080    1080       0
    1082    1083    1084    1085    1086    1087    1088    1089    1090    1091
    1092    1093    1094    1095    1096    1083    1084    1085    1086    1087
    1088    1089    1090    1091    1092    1097    1098    1099    1084    1085
    1086    1087    1088    1089    1090    1092    1093    1094    1095    1099
    1100    1085    1086    1087    1088    1089    1090    1095    1096    1100
    1101    1102    1086    1087    1091    1092    1093    1097    1098    1099
    1103    1104    1105    1091    1092    1088    1091    1092    1093    1094
    1095    1099    1103    1105    1089    1092    1093    1094    1095    1096
    1100    1106    1107    1090    1094    1095    1096    1100    1101    1102
    1106    1107    1108    1095    1096    1092    1097    1098    1099    1103
    1104    1109    1093    1097    1098    1099    1103    1105    1109    1099
    1095    1100    1096    1100    1101    1102    1106    1107    1110    1100
    1101    1102    1107    1108    1110    1111    1112    1098    1099    1103
    1104    1105    1109    1103    1104    1103    1104    1105    1109    1101
    1106    1107    1108    1110    1113    1114    1102    1106    1107    1108
    1110    1111    1112    1113    1114    1115    1107    1108    1104    1105
    1109    1109    1109    1107    1110    1108    1110    1111    1112    1113
    1114    1116    1110    1111    1112    1113    1115    1116       0    1111
    1113    1114    1115    1116    1112    1113    1114    1115    1116    1113
    1115    1114    1115    1116    1116    1116       0    1118    1119    1120
    1121    1122    1123    1124    1125    1126    1127    1128    1129    1130
    1131    1132    1119    1120    1121    1122    1123    1124    1125    1126
    1127    1128    1133    1134    1135    1120    1121    1122    1123    1124
    1125    1126    1128    1129    1130    1131    1135    1136    1121    1122
    1123    1124    1125    1126    1131    1132    1136    1137    1138    1122
    1123    1127    1128    1129    1133    1134    1135    1139    1140    1141
    1127    1128    1124    1127    1128    1129    1130    1131    1135    1139
    1141    1125    1128    1129    1130    1131    1132    1136    1142    1143
    1126    1130    1131    1132    1136    1137    1138    1142    1143    1144
    1131    1132    1128    1133    1134    1135    1139    1140    1145    1129
    1133    1134    1135    1139    1141    1145    1135    1131    1136    1132
    1136    1137    1138    1142    1143    1146    1136    1137    1138    1143
    1144    1146    1147    1148    1134    1135    1139    1140    1141    1145
    1139    1140    1139    1140    1141    1145    1137    1142    1143    1144
    1146    1149    1150    1138    1142    1143    1144    1146    1147    1148
    1149    1150    1151    1143    1144    1140    1141    1145    1145    1145
    1143    1146    1144    1146    1147    1148    1149    1150    1152    1146
    1147    1148    1149    1151    1152       0    1147    1149    1150    1151
    1152    1148    1149    1150    1151    1152    1149    1151    1150    1151
    1152    1152    1152       0    1154    1155    1156    1157    1158    1159
    1160    1161    1162    1163    1164    1165    1166    1167    1168    1155
    1156    1157    1158    1159    1160    1161    1162    1163    1164    1169
    1170    1171    1156    1157    1158    1159    1160    1161    1162    1164
    1165    1166    1167    1171    1172    1157    1158    1159    1160    1161
    1162    1167    1168    1172    1173    1174    1158    1159    1163    1164
    1165    1169    1170    1171    1175    1176    1177    1163    1164    1160
    1163    1164    1165    1166    1167    1171    1175    1177    1161    1164
    1165    1166    1167    1168    1172    1178    1179    1162    1166    1167
    1168    1172    1173    1174    1178    1179    1180    1167    1168    1164
    1169    1170    1171    1175    1176    1181    1165    1169    1170    1171
    1175    1177    1181    1171    1167    1172    1168    1172    1173    1174
    1178    1179    1182    1172    1173    1174    1179    1180    1182    1183
    1184    1170    1171    1175    1176    1177    1181    1175    1176    1175
    1176    1177    1181    1173    1178    1179    1180    1182    1185    1186
    1174    1178    1179    1180    1182    1183    1184    1185    1186    1187
    1179    1180    1176    1177    1181    1181    1181    1179    1182    1180
    1182    1183    1184    1185    1186    1188    1182    1183    1184    1185
    1187    1188       0    1183    1185    1186    1187    1188    1184    1185
    1186    1187    1188    1185    1187    1186    1187    1188    1188    1188
       0    1190    1191    1192    1193    1194    1195    1196    1197    1198
    1199    1200    1201    1202    1203    1204    1191    1192    1193    1194
    1195    1196    1197    1198    1199    1200    1205    1206    1207    1192
    1193    1194    1195    1196    1197    1198    1200    1201    1202    1203
    1207    1208    1193    1194    1195    1196    1197    1198    1203    1204
    1208    1209    1210    1194    1195    1199    1200    1201    1205    1206
    1207    1211    1212    1213    1199    1200    1196    1199    1200    1201
    1202    1203    1207    1211    1213    1197    1200    1201    1202    1203
    1204    1208    1214    1215    1198    1202    1203    1204    1208    1209
    1210    1214    1215    1216    1203    1204    1200    1205    1206    1207
    1211    1212    1217    1201    1205    1206    1207    1211    1213    1217
    1207    1203    1208    1204    1208    1209    1210    1214    1215    1218
    1208    1209    1210    1215    1216    1218    1219    1220    1206    1207
    1211    1212    1213    1217    1211    1212    1211    1212    1213    1217
    1209    1214    1215    1216    1218    1221    1222    1210    1214    1215
    1216    1218    1219    1220    1221    1222    1223    1215    1216    1212
    1213    1217    1217    1217    1215    1218    1216    1218    1219    1220
    1221    1222    1224    1218    1219    1220    1221    1223    1224       0
    1219    1221    1222    1223    1224    1220    1221    1222    1223    1224
    1221    1223    1222    1223    1224    1224    1224       0    1226    1227
    1228    1229    1230    1231    1232    1233    1234    1235    1236    1237
    1238    1239    1240    1227    1228    1229    1230    1231    1232    1233
    1234    1235    1236    1241    1242    1243    1228    1229    1230    1231
    1232    1233    1234    1236    1237    1238    1239    1243    1244    1229
    1230    1231    1232    1233    1234    1239    1240    1244    1245    1246
    1230    1231    1235    1236    1237    1241    1242    1243    1247    1248
    1249    1235    1236    1232    1235    1236    1237    1238    1239    1243
    1247    1249    1233    1236    1237    1238    1239    1240    1244    1250
    1251    1234    1238    1239    1240    1244    1245    1246    1250    1251
    1252    1239    1240    1236    1241    1242    1243    1247    1248    1253
    1237    1241    1242    1243    1247    1249    1253    1243    1239    1244
    1240    1244    1245    1246    1250    1251    1254    1244    1245    1246
    1251    1252    1254    1255    1256    1242    1243    1247    1248    1249
    1253    1247    1248    1247    1248    1249    1253    1245    1250    1251
    1252    1254    1257    1258    1246    1250    1251    1252    1254    1255
    1256    1257    1258    1259    1251    1252    1248    1249    1253    1253
    1253    1251    1254    1252    1254    1255    1256    1257    1258    1260
    1254    1255    1256    1257    1259    1260       0    1255    1257    1258
    1259    1260    1256    1257    1258    1259    1260    1257    1259    1258
    1259    1260    1260    1260       0    1262    1263    1264    1265    1266
    1267    1268    1269    1270    1271    1272    1273    1274    1275    1276
    1263    1264    1265    1266    1267    1268    1269    1270    1271    1272
    1277    1278    1279    1264    1265    1266    1267    1268    1269    1270
    1272    1273    1274    1275    1279    1280    1265    1266    1267    1268
    1269    1270    1275    1276    1280    1281    1282    1266    1267    1271
    1272    1273    1277    1278    1279    1283    1284    1285    1271    1272
    1268    1271    1272    1273    1274    1275    1279    1283    1285    1269
    1272    1273    1274    1275    1276    1280    1286    1287    1270    1274
    1275    1276    1280    1281    1282    1286    1287    1288    1275    1276
    1272    1277    1278    1279    1283    1284    1289    1273    1277    1278
    1279    1283    1285    1289    1279    1275    1280    1276    1280    1281
    1282    1286    1287    1290    1280    1281    1282    1287    1288    1290
    1291    1292    1278    1279    1283    1284    1285    1289    1283    1284
    1283    1284    1285    1289    1281    1286    1287    1288    1290    1293
    1294    1282    1286    1287    1288    1290    1291    1292    1293    1294
    1295    1287    1288    1284    1285    1289    1289    1289    1287    1290
    1288    1290    1291    1292    1293    1294    1296    1290    1291    1292
    1293    1295    1296       0    1291    1293    1294    1295    1296    1292
    1293    1294    1295    1296    1293    1295    1294    1295    1296    1296
    1296       0    1298    1299    1300    1301    1302    1303    1304    1305
    1306    1307    1308    1309    1310    1311    1312    1299    1300    1301
    1302    1303    1304    1305    1306    1307    1308    1313    1314    1315
    1300    1301    1302    1303    1304    1305    1306    1308    1309    1310
    1311    1315    1316    1301    1302    1303    1304    1305    1306    1311
    1312    1316    1317    1318    1302    1303    1307    1308    1309    1313
    1314    1315    1319    1320    1321    1307    1308    1304    1307    1308
    1309    1310    1311    1315    1319    1321    1305    1308    1309    1310
    1311    1312    1316    1322    1323    1306    1310    1311    1312    1316
    1317    1318    1322    1323    1324    1311    1312    1308    1313    1314
    1315    1319    1320    1325    1309    1313    1314    1315    1319    1321
    1325    1315    1311    1316    1312    1316    1317    1318    1322    1323
    1326    1316    1317    1318    1323    1324    1326    1327    1328    1314
    1315    1319    1320    1321    1325    1319    1320    1319    1320    1321
    1325    1317    1322    1323    1324    1326    1329    1330    1318    1322
    1323    1324    1326    1327    1328    1329    1330    1331    1323    1324
    1320    1321    1325    1325    1325    1323    1326    1324    1326    1327
    1328    1329    1330    1332    1326    1327    1328    1329    1331    1332
       0    1327    1329    1330    1331    1332    1328    1329    1330    1331
    1332    1329    1331    1330    1331    1332    1332    1332       0    1334
    1335    1336    1337    1338    1339    1340    1341    1342    1343    1344
    1345    1346    1347    1348    1335    1336    1337    1338    1339    1340
    1341    1342    1343    1344    1349    1350    1351    1336    1337    1338
    1339    1340    1341    1342    1344    1345    1346    1347    1351    1352
    1337    1338    1339    1340    1341    1342    1347    1348    1352    1353
    1354    1338    1339    1343    1344    1345    1349    1350    1351    1355
    1356    1357    1343    1344    1340    1343    1344    1345    1346    1347
    1351    1355    1357    1341    1344    1345    1346    1347    1348    1352
    1358    1359    1342    1346    1347    1348    1352    1353    1354    1358
    1359    1360    1347    1348    1344    1349    1350    1351    1355    1356
    1361    1345    1349    1350    1351    1355    1357    1361    1351    1347
    1352    1348    1352    1353    1354    1358    1359    1362    1352    1353
    1354    1359    1360    1362    1363    1364    1350    1351    1355    1356
    1357    1361    1355    1356    1355    1356    1357    1361    1353    1358
    1359    1360    1362    1365    1366    1354    1358    1359    1360    1362
    1363    1364    1365    1366    1367    1359    1360    1356    1357    1361
    1361    1361    1359    1362    1360    1362    1363    1364    1365    1366
    1368    1362    1363    1364    1365    1367    1368       0    1363    1365
    1366    1367    1368    1364    1365    1366    1367    1368    1365    1367
    1366    1367    1368    1368    1368       0    1370    1371    1372    1373
    1374    1375    1376    1377    1378    1379    1380    1381    1382    1383
    1384    1371    1372    1373    1374    1375    1376    1377    1378    1379
    1380    1385    1386    1387    1372    1373    1374    1375    1376    1377
    1378    1380    1381    1382    1383    1387    1388    1373    1374    1375
    1376    1377    1378    1383    1384    1388    1389    1390    1374    1375
    1379    1380    1381    1385    1386    1387    1391    1392    1393    1379
    1380    1376    1379    1380    1381    1382    1383    1387    1391    1393
    1377    1380    1381    1382    1383    1384    1388    1394    1395    1378
    1382    1383    1384    1388    1389    1390    1394    1395    1396    1383
    1384    1380    1385    1386    1387    1391    1392    1397    1381    1385
    1386    1387    1391    1393    1397    1387    1383    1388    1384    1388
    1389    1390    1394    1395    1398    1388    1389    1390    1395    1396
    1398    1399    1400    1386    1387    1391    1392    1393    1397    1391
    1392    1391    1392    1393    1397    1389    1394    1395    1396    1398
    1401    1402    1390    1394    1395    1396    1398    1399    1400    1401
    1402    1403    1395    1396    1392    1393    1397    1397    1397    1395
    1398    1396    1398    1399    1400    1401    1402    1404    1398    1399
    1400    1401    1403    1404       0    1399    1401    1402    1403    1404
    1400    1401    1402    1403    1404    1401    1403    1402    1403    1404
    1404    1404       0    1406    1407    1408    1409    1410    1411    1412
    1413    1414    1415    1416    1417    1418    1419    1420    1407    1408
    1409    1410    1411    1412    1413    1414    1415    1416    1421    1422
    1423    1408    1409    1410    1411    1412    1413    1414    1416    1417
    1418    1419    1423    1424    1409    1410    1411    1412    1413    1414
    1419    1420    1424    1425    1426    1410    1411    1415    1416    1417
    1421    1422    1423    1427    1428    1429    1415    1416    1412    1415
    1416    1417    1418    1419    1423    1427    1429    1413    1416    1417
    1418    1419    1420    1424    1430    1431    1414    1418    1419    1420
    1424    1425    1426    1430    1431    1432    1419    1420    1416    1421
    1422    1423    1427    1428    1433    1417    1421    1422    1423    1427
    1429    1433    1423    1419    1424    1420    1424    1425    1426    1430
    1431    1434    1424    1425    1426    1431    1432    1434    1435    1436
    1422    1423    1427    1428    1429    1433    1427    1428    1427    1428
    1429    1433    1425    1430    1431    1432    1434    1437    1438    1426
    1430    1431    1432    1434    1435    1436    1437    1438    1439    1431
    1432    1428    1429    1433    1433    1433    1431    1434    1432    1434
    1435    1436    1437    1438    1440    1434    1435    1436    1437    1439
    1440       0    1435    1437    1438    1439    1440    1436    1437    1438
    1439    1440    1437    1439    1438    1439    1440    1440    1440       0
    1442    1443    1444    1445    1446    1447    1448    1449    1450    1451
    1452    1453    1454    1455    1456    1443    1444    1445    1446    1447
    1448    1449    1450    1451    1452    1457    1458    1459    1444    1445
    1446    1447    1448    1449    1450    1452    1453    1454    1455    1459
    1460    1445    1446    1447    1448    1449    1450    1455    1456    1460
    1461    1462    1446    1447    1451    1452    1453    1457    1458    1459
    1463    1464    1465    1451    1452    1448    1451    1452    1453    1454
    1455    1459    1463    1465    1449    1452    1453    1454    1455    1456
    1460    1466    1467    1450    1454    1455    1456    1460    1461    1462
    1466    1467    1468    1455    1456    1452    1457    1458    1459    1463
    1464    1469    1453    1457    1458    1459    1463    1465    1469    1459
    1455    1460    1456    1460    1461    1462    1466    1467    1470    1460
    1461    1462    1467    1468    1470    1471    1472    1458    1459    1463
    1464    1465    1469    1463    1464    1463    1464    1465    1469    1461
    1466    1467    1468    1470    1473    1474    1462    1466    1467    1468
    1470    1471    1472    1473    1474    1475    1467    1468    1464    1465
    1469    1469    1469    1467    1470    1468    1470    1471    1472    1473
    1474    1476    1470    1471    1472    1473    1475    1476       0    1471
    1473    1474    1475    1476    1472    1473    1474    1475    1476    1473
    1475    1474    1475    1476    1476    1476       0    1478    1479    1480
    1481    1482    1483    1484    1485    1486    1487    1488    1489    1490
    1491    1492    1479    1480    1481    1482    1483    1484    1485    1486
    1487    1488    1493    1494    1495    1480    1481    1482    1483    1484
    1485    1486    1488    1489    1490    1491    1495    1496    1481    1482
    1483    1484    1485    1486    1491    1492    1496    1497    1498    1482
    1483    1487    1488    1489    1493    1494    1495    1499    1500    1501
    1487    1488    1484    1487    1488    1489    1490    1491    1495    1499
    1501    1485    1488    1489    1490    1491    1492    1496    1502    1503
    1486    1490    1491    1492    1496    1497    1498    1502    1503    1504
    1491    1492    1488    1493    1494    1495    1499    1500    1505    1489
    1493    1494    1495    1499    1501    1505    1495    1491    1496    1492
    1496    1497    1498    1502    1503    1506    1496    1497    1498    1503
    1504    1506    1507    1508    1494    1495    1499    1500    1501    1505
    1499    1500    1499    1500    1501    1505    1497    1502    1503    1504
    1506    1509    1510    1498    1502    1503    1504    1506    1507    1508
    1509    1510    1511    1503    1504    1500    1501    1505    1505    1505
    1503    1506    1504    1506    1507    1508    1509    1510    1512    1506
    1507    1508    1509    1511    1512       0    1507    1509    1510    1511
    1512    1508    1509    1510    1511    1512    1509    1511    1510    1511
    1512    1512    1512       0    1514    1515    1516    1517    1518    1519
    1520    1521    1522    1523    1524    1525    1526    1527    1528    1515
    1516    1517    1518    1519    1520    1521    1522    1523    1524    1529
    1530    1531    1516    1517    1518    1519    1520    1521    1522    1524
    1525    1526    1527    1531    1532    1517    1518    1519    1520    1521
    1522    1527    1528    1532    1533    1534    1518    1519    1523    1524
    1525    1529    1530    1531    1535    1536    1537    1523    1524    1520
    1523    1524    1525    1526    1527    1531    1535    1537    1521    1524
    1525    1526    1527    1528    1532    1538    1539    1522    1526    1527
    1528    1532    1533    1534    1538    1539    1540    1527    1528    1524
    1529    1530    1531    1535    1536    1541    1525    1529    1530    1531
    1535    1537    1541    1531    1527    1532    1528    1532    1533    1534
    1538    1539    1542    1532    1533    1534    1539    1540    1542    1543
    1544    1530    1531    1535    1536    1537    1541    1535    1536    1535
    1536    1537    1541    1533    1538    1539    1540    1542    1545    1546
    1534    1538    1539    1540    1542    1543    1544    1545    1546    1547
    1539    1540    1536    1537    1541    1541    1541    1539    1542    1540
    1542    1543    1544    1545    1546    1548    1542    1543    1544    1545
    1547    1548       0    1543    1545    1546    1547    1548    1544    1545
    1546    1547    1548    1545    1547    1546    1547    1548    1548    1548
       0    1550    1551    1552    1553    1554    1555    1556    1557    1558
    1559    1560    1561    1562    1563    1564    1551    1552    1553    1554
    1555    1556    1557    1558    1559    1560    1565    1566    1567    1552
    1553    1554    1555    1556    1557    1558    1560    1561    1562    1563
    1567    1568    1553    1554    1555    1556    1557    1558    1563    1564
    1568    1569    1570    1554    1555    1559    1560    1561    1565    1566
    1567    1571    1572    1573    1559    1560    1556    1559    1560    1561
    1562    1563    1567    1571    1573    1557    1560    1561    1562    1563
    1564    1568    1574    1575    1558    1562    1563    1564    1568    1569
    1570    1574    1575    1576    1563    1564    1560    1565    1566    1567
    1571    1572    1577    1561    1565    1566    1567    1571    1573    1577
    1567    1563    1568    1564    1568    1569    1570    1574    1575    1578
    1568    1569    1570    1575    1576    1578    1579    1580    1566    1567
    1571    1572    1573    1577    1571    1572    1571    1572    1573    1577
    1569    1574    1575    1576    1578    1581    1582    1570    1574    1575
    1576    1578    1579    1580    1581    1582    1583    1575    1576    1572
    1573    1577    1577    1577    1575    1578    1576    1578    1579    1580
    1581    1582    1584    1578    1579    1580    1581    1583    1584       0
    1579    1581    1582    1583    1584    1580    1581    1582    1583    1584
    1581    1583    1582    1583    1584    1584    1584       0    1586    1587
    1588    1589    1590    1591    1592    1593    1594    1595    1596    1597
    1598    1599    1600    1587    1588    1589    1590    1591    1592    1593
    1594    1595    1596    1601    1602    1603    1588    1589    1590    1591
    1592    1593    1594    1596    1597    1598    1599    1603    1604    1589
    1590    1591    1592    1593    1594    1599    1600    1604    1605    1606
    1590    1591    1595    1596    1597    1601    1602    1603    1607    1608
    1609    1595    1596    1592    1595    1596    1597    1598    1599    1603
    1607    1609    1593    1596    1597    1598    1599    1600    1604    1610
    1611    1594    1598    1599    1600    1604    1605    1606    1610    1611
    1612    1599    1600    1596    1601    1602    1603    1607    1608    1613
    1597    1601    1602    1603    1607    1609    1613    1603    1599    1604
    1600    1604    1605    1606    1610    1611    1614    1604    1605    1606
    1611    1612    1614    1615    1616    1602    1603    1607    1608    1609
    1613    1607    1608    1607    1608    1609    1613    1605    1610    1611
    1612    1614    1617    1618    1606    1610    1611    1612    1614    1615
    1616    1617    1618    1619    1611    1612    1608    1609    1613    1613
    1613    1611    1614    1612    1614    1615    1616    1617    1618    1620
    1614    1615    1616    1617    1619    1620       0    1615    1617    1618
    1619    1620    1616    1617    1618    1619    1620    1617    1619    1618
    1619    1620    1620    1620       0    1622    1623    1624    1625    1626
    1627    1628    1629    1630    1631    1632    1633    1634    1635    1636
    1623    1624    1625    1626    1627    1628    1629    1630    1631    1632
    1637    1638    1639    1624    1625    1626    1627    1628    1629    1630
    1632    1633    1634    1635    1639    1640    1625    1626    1627    1628
    1629    1630    1635    1636    1640    1641    1642    1626    1627    1631
    1632    1633    1637    1638    1639    1643    1644    1645    1631    1632
    1628    1631    1632    1633    1634    1635    1639    1643    1645    1629
    1632    1633    1634    1635    1636    1640    1646    1647    1630    1634
    1635    1636    1640    1641    1642    1646    1647    1648    1635    1636
    1632    1637    1638    1639    1643    1644    1649    1633    1637    1638
    1639    1643    1645    1649    1639    1635    1640    1636    1640    1641
    1642    1646    1647    1650    1640    1641    1642    1647    1648    1650
    1651    1652    1638    1639    1643    1644    1645    1649    1643    1644
    1643    1644    1645    1649    1641    1646    1647    1648    1650    1653
    1654    1642    1646    1647    1648    1650    1651    1652    1653    1654
    1655    1647    1648    1644    1645    1649    1649    1649    1647    1650
    1648    1650    1651    1652    1653    1654    1656    1650    1651    1652
    1653    1655    1656       0    1651    1653    1654    1655    1656    1652
    1653    1654    1655    1656    1653    1655    1654    1655    1656    1656
    1656       0    1658    1659    1660    1661    1662    1663    1664    1665
    1666    1667    1668    1669    1670    1671    1672    1659    1660    1661
    1662    1663    1664    1665    1666    1667    1668    1673    1674    1675
    1660    1661    1662    1663    1664    1665    1666    1668    1669    1670
    1671    1675    1676    1661    1662    1663    1664    1665    1666    1671
    1672    1676    1677    1678    1662    1663    1667    1668    1669    1673
    1674    1675    1679    1680    1681    1667    1668    1664    1667    1668
    1669    1670    1671    1675    1679    1681    1665    1668    1669    1670
    1671    1672    1676    1682    1683    1666    1670    1671    1672    1676
    1677    1678    1682    1683    1684    1671    1672    1668    1673    1674
    1675    1679    1680    1685    1669    1673    1674    1675    1679    1681
    1685    1675    1671    1676    1672    1676    1677    1678    1682    1683
    1686    1676    1677    1678    1683    1684    1686    1687    1688    1674
    1675    1679    1680    1681    1685    1679    1680    1679    1680    1681
    1685    1677    1682    1683    1684    1686    1689    1690    1678    1682
    1683    1684    1686    1687    1688    1689    1690    1691    1683    1684
    1680    1681    1685    1685    1685    1683    1686    1684    1686    1687
    1688    1689    1690    1692    1686    1687    1688    1689    1691    1692
       0    1687    1689    1690    1691    1692    1688    1689    1690    1691
    1692    1689    1691    1690    1691    1692    1692    1692       0    1694
    1695    1696    1697    1698    1699    1700    1701    1702    1703    1704
    1705    1706    1707    1708    1695    1696    1697    1698    1699    1700
    1701    1702    1703    1704    1709    1710    1711    1696    1697    1698
    1699    1700    1701    1702    1704    1705    1706    1707    1711    1712
    1697    1698    1699    1700    1701    1702    1707    1708    1712    1713
    1714    1698    1699    1703    1704    1705    1709    1710    1711    1715
    1716    1717    1703    1704    1700    1703    1704    1705    1706    1707
    1711    1715    1717    1701    1704    1705    1706    1707    1708    1712
    1718    1719    1702    1706    1707    1708    1712    1713    1714    1718
    1719    1720    1707    1708    1704    1709    1710    1711    1715    1716
    1721    1705    1709    1710    1711    1715    1717    1721    1711    1707
    1712    1708    1712    1713    1714    1718    1719    1722    1712    1713
    1714    1719    1720    1722    1723    1724    1710    1711    1715    1716
    1717    1721    1715    1716    1715    1716    1717    1721    1713    1718
    1719    1720    1722    1725    1726    1714    1718    1719    1720    1722
    1723    1724    1725    1726    1727    1719    1720    1716    1717    1721
    1721    1721    1719    1722    1720    1722    1723    1724    1725    1726
    1728    1722    1723    1724    1725    1727    1728       0    1723    1725
    1726    1727    1728    1724    1725    1726    1727    1728    1725    1727
    1726    1727    1728    1728    1728       0    1730    1731    1732    1733
    1734    1735    1736    1737    1738    1739    1740    1741    1742    1743
    1744    1731    1732    1733    1734    1735    1736    1737    1738    1739
    1740    1745    1746    1747    1732    1733    1734    1735    1736    1737
    1738    1740    1741    1742    1743    1747    1748    1733    1734    1735
    1736    1737    1738    1743    1744    1748    1749    1750    1734    1735
    1739    1740    1741    1745    1746    1747    1751    1752    1753    1739
    1740    1736    1739    1740    1741    1742    1743    1747    1751    1753
    1737    1740    1741    1742    1743    1744    1748    1754    1755    1738
    1742    1743    1744    1748    1749    1750    1754    1755    1756    1743
    1744    1740    1745    1746    1747    1751    1752    1757    1741    1745
    1746    1747    1751    1753    1757    1747    1743    1748    1744    1748
    1749    1750    1754    1755    1758    1748    1749    1750    1755    1756
    1758    1759    1760    1746    1747    1751    1752    1753    1757    1751
    1752    1751    1752    1753    1757    1749    1754    1755    1756    1758
    1761    1762    1750    1754    1755    1756    1758    1759    1760    1761
    1762    1763    1755    1756    1752    1753    1757    1757    1757    1755
    1758    1756    1758    1759    1760    1761    1762    1764    1758    1759
    1760    1761    1763    1764       0    1759    1761    1762    1763    1764
    1760    1761    1762    1763    1764    1761    1763    1762    1763    1764
    1764    1764       0    1766    1767    1768    1769    1770    1771    1772
    1773    1774    1775    1776    1777    1778    1779    1780    1767    1768
    1769    1770    1771    1772    1773    1774    1775    1776    1781    1782
    1783    1768    1769    1770    1771    1772    1773    1774    1776    1777
    1778    1779    1783    1784    1769    1770    1771    1772    1773    1774
    1779    1780    1784    1785    1786    1770    1771    1775    1776    1777
    1781    1782    1783    1787    1788    1789    1775    1776    1772    1775
    1776    1777    1778    1779    1783    1787    1789    1773    1776    1777
    1778    1779    1780    1784    1790    1791    1774    1778    1779    1780
    1784    1785    1786    1790    1791    1792    1779    1780    1776    1781
    1782    1783    1787    1788    1793    1777    1781    1782    1783    1787
    1789    1793    1783    1779    1784    1780    1784    1785    1786    1790
    1791    1794    1784    1785    1786    1791    1792    1794    1795    1796
    1782    1783    1787    1788    1789    1793    1787    1788    1787    1788
    1789    1793    1785    1790    1791    1792    1794    1797    1798    1786
    1790    1791    1792    1794    1795    1796    1797    1798    1799    1791
    1792    1788    1789    1793    1793    1793    1791    1794    1792    1794
    1795    1796    1797    1798    1800    1794    1795    1796    1797    1799
    1800       0    1795    1797    1798    1799    1800    1796    1797    1798
    1799    1800    1797    1799    1798    1799    1800    1800    1800       0
    1802    1803    1804    1805    1806    1807    1808    1809    1810    1811
    1812    1813    1814    1815    1816    1803    1804    1805    1806    1807
    1808    1809    1810    1811    1812    1817    1818    1819    1804    1805
    1806    1807    1808    1809    1810    1812    1813    1814    1815    1819
    1820    1805    1806    1807    1808    1809    1810    1815    1816    1820
    1821    1822    1806    1807    1811    1812    1813    1817    1818    1819
    1823    1824    1825    1811    1812    1808    1811    1812    1813    1814
    1815    1819    1823    1825    1809    1812    1813    1814    1815    1816
    1820    1826    1827    1810    1814    1815    1816    1820    1821    1822
    1826    1827    1828    1815    1816    1812    1817    1818    1819    1823
    1824    1829    1813    1817    1818    1819    1823    1825    1829    1819
    1815    1820    1816    1820    1821    1822    1826    1827    1830    1820
    1821    1822    1827    1828    1830    1831    1832    1818    1819    1823
    1824    1825    1829    1823    1824    1823    1824    1825    1829    1821
    1826    1827    1828    1830    1833    1834    1822    1826    1827    1828
    1830    1831    1832    1833    1834    1835    1827    1828    1824    1825
    1829    1829    1829    1827    1830    1828    1830    1831    1832    1833
    1834    1836    1830    1831    1832    1833    1835    1836       0    1831
    1833    1834    1835    1836    1832    1833    1834    1835    1836    1833
    1835    1834    1835    1836    1836    1836       0    1838    1839    1840
    1841    1842    1843    1844    1845    1846    1847    1848    1849    1850
    1851    1852    1839    1840    1841    1842    1843    1844    1845    1846
    1847    1848    1853    1854    1855    1840    1841    1842    1843    1844
    1845    1846    1848    1849    1850    1851    1855    1856    1841    1842
    1843    1844    1845    1846    1851    1852    1856    1857    1858    1842
    1843    1847    1848    1849    1853    1854    1855    1859    1860    1861
    1847    1848    1844    1847    1848    1849    1850    1851    1855    1859
    1861    1845    1848    1849    1850    1851    1852    1856    1862    1863
    1846    1850    1851    1852    1856    1857    1858    1862    1863    1864
    1851    1852    1848    1853    1854    1855    1859    1860    1865    1849
    1853    1854    1855    1859    1861    1865    1855    1851    1856    1852
    1856    1857    1858    1862    1863    1866    1856    1857    1858    1863
    1864    1866    1867    1868    1854    1855    1859    1860    1861    1865
    1859    1860    1859    1860    1861    1865    1857    1862    1863    1864
    1866    1869    1870    1858    1862    1863    1864    1866    1867    1868
    1869    1870    1871    1863    1864    1860    1861    1865    1865    1865
    1863    1866    1864    1866    1867    1868    1869    1870    1872    1866
    1867    1868    1869    1871    1872       0    1867    1869    1870    1871
    1872    1868    1869    1870    1871    1872    1869    1871    1870    1871
    1872    1872    1872       0    1874    1875    1876    1877    1878    1879
    1880    1881    1882    1883    1884    1885    1886    1887    1888    1875
    1876    1877    1878    1879    1880    1881    1882    1883    1884    1889
    1890    1891    1876    1877    1878    1879    1880    1881    1882    1884
    1885    1886    1887    1891    1892    1877    1878    1879    1880    1881
    1882    1887    1888    1892    1893    1894    1878    1879    1883    1884
    1885    1889    1890    1891    1895    1896    1897    1883    1884    1880
    1883    1884    1885    1886    1887    1891    1895    1897    1881    1884
    1885    1886    1887    1888    1892    1898    1899    1882    1886    1887
    1888    1892    1893    1894    1898    1899    1900    1887    1888    1884
    1889    1890    1891    1895    1896    1901    1885    1889    1890    1891
    1895    1897    1901    1891    1887    1892    1888    1892    1893    1894
    1898    1899    1902    1892    1893    1894    1899    1900    1902    1903
    1904    1890    1891    1895    1896    1897    1901    1895    1896    1895
    1896    1897    1901    1893    1898    1899    1900    1902    1905    1906
    1894    1898    1899    1900    1902    1903    1904    1905    1906    1907
    1899    1900    1896    1897    1901    1901    1901    1899    1902    1900
    1902    1903    1904    1905    1906    1908    1902    1903    1904    1905
    1907    1908       0    1903    1905    1906    1907    1908    1904    1905
    1906    1907    1908    1905    1907    1906    1907    1908    1908    1908
       0    1910    1911    1912    1913    1914    1915    1916    1917    1918
    1919    1920    1921    1922    1923    1924    1911    1912    1913    1914
    1915    1916    1917    1918    1919    1920    1925    1926    1927    1912
    1913    1914    1915    1916    1917    1918    1920    1921    1922    1923
    1927    1928    1913    1914    1915    1916    1917    1918    1923    1924
    1928    1929    1930    1914    1915    1919    1920    1921    1925    1926
    1927    1931    1932    1933    1919    1920    1916    1919    1920    1921
    1922    1923    1927    1931    1933    1917    1920    1921    1922    1923
    1924    1928    1934    1935    1918    1922    1923    1924    1928    1929
    1930    1934    1935    1936    1923    1924    1920    1925    1926    1927
    1931    1932    1937    1921    1925    1926    1927    1931    1933    1937
    1927    1923    1928    1924    1928    1929    1930    1934    1935    1938
    1928    1929    1930    1935    1936    1938    1939    1940    1926    1927
    1931    1932    1933    1937    1931    1932    1931    1932    1933    1937
    1929    1934    1935    1936    1938    1941    1942    1930    1934    1935
    1936    1938    1939    1940    1941    1942    1943    1935    1936    1932
    1933    1937    1937    1937    1935    1938    1936    1938    1939    1940
    1941    1942    1944    1938    1939    1940    1941    1943    1944       0
    1939    1941    1942    1943    1944    1940    1941    1942    1943    1944
    1941    1943    1942    1943    1944    1944    1944       0    1946    1947
    1948    1949    1950    1951    1952    1953    1954    1955    1956    1957
    1958    1959    1960    1947    1948    1949    1950    1951    1952    1953
    1954    1955    1956    1961    1962    1963    1948    1949    1950    1951
    1952    1953    1954    1956    1957    1958    1959    1963    1964    1949
    1950    1951    1952    1953    1954    1959    1960    1964    1965    1966
    1950    1951    1955    1956    1957    1961    1962    1963    1967    1968
    1969    1955    1956    1952    1955    1956    1957    1958    1959    1963
    1967    1969    1953    1956    1957    1958    1959    1960    1964    1970
    1971    1954    1958    1959    1960    1964    1965    1966    1970    1971
    1972    1959    1960    1956    1961    1962    1963    1967    1968    1973
    1957    1961    1962    1963    1967    1969    1973    1963    1959    1964
    1960    1964    1965    1966    1970    1971    1974    1964    1965    1966
    1971    1972    1974    1975    1976    1962    1963    1967    1968    1969
    1973    1967    1968    1967    1968    1969    1973    1965    1970    1971
    1972    1974    1977    1978    1966    1970    1971    1972    1974    1975
    1976    1977    1978    1979    1971    1972    1968    1969    1973    1973
    1973    1971    1974    1972    1974    1975    1976    1977    1978    1980
    1974    1975    1976    1977    1979    1980       0    1975    1977    1978
    1979    1980    1976    1977    1978    1979    1980    1977    1979    1978
    1979    1980    1980    1980       0    1982    1983    1984    1985    1986
    1987    1988    1989    1990    1991    1992    1993    1994    1995    1996
    1983    1984    1985    1986    1987    1988    1989    1990    1991    1992
    1997    1998    1999    1984    1985    1986    1987    1988    1989    1990
    1992    1993    1994    1995    1999    2000    1985    1986    1987    1988
    1989    1990    1995    1996    2000    2001    2002    1986    1987    1991
    1992    1993    1997    1998    1999    2003    2004    2005    1991    1992
    1988    1991    1992    1993    1994    1995    1999    2003    2005    1989
    1992    1993    1994    1995    1996    2000    2006    2007    1990    1994
    1995    1996    2000    2001    2002    2006    2007    2008    1995    1996
    1992    1997    1998    1999    2003    2004    2009    1993    1997    1998
    1999    2003    2005    2009    1999    1995    2000    1996    2000    2001
    2002    2006    2007    2010    2000    2001    2002    2007    2008    2010
    2011    2012    1998    1999    2003    2004    2005    2009    2003    2004
    2003    2004    2005    2009    2001    2006    2007    2008    2010    2013
    2014    2002    2006    2007    2008    2010    2011    2012    2013    2014
    2015    2007    2008    2004    2005    2009    2009    2009    2007    2010
    2008    2010    2011    2012    2013    2014    2016    2010    2011    2012
    2013    2015    2016       0    2011    2013    2014    2015    2016    2012
    2013    2014    2015    2016    2013    2015    2014    2015    2016    2016
    2016       0    2018    2019    2020    2021    2022    2023    2024    2025
    2026    2027    2028    2029    2030    2031    2032    2019    2020    2021
    2022    2023    2024    2025    2026    2027    2028    2033    2034    2035
    2020    2021    2022    2023    2024    2025    2026    2028    2029    2030
    2031    2035    2036    2021    2022    2023    2024    2025    2026    2031
    2032    2036    2037    2038    2022    2023    2027    2028    2029    2033
    2034    2035    2039    2040    2041    2027    2028    2024    2027    2028
    2029    2030    2031    2035    2039    2041    2025    2028    2029    2030
    2031    2032    2036    2042    2043    2026    2030    2031    2032    2036
    2037    2038    2042    2043    2044    2031    2032    2028    2033    2034
    2035    2039    2040    2045    2029    2033    2034    2035    2039    2041
    2045    2035    2031    2036    2032    2036    2037    2038    2042    2043
    2046    2036    2037    2038    2043    2044    2046    2047    2048    2034
    2035    2039    2040    2041    2045    2039    2040    2039    2040    2041
    2045    2037    2042    2043    2044    2046    2049    2050    2038    2042
    2043    2044    2046    2047    2048    2049    2050    2051    2043    2044
    2040    2041    2045    2045    2045    2043    2046    2044    2046    2047
    2048    2049    2050    2052    2046    2047    2048    2049    2051    2052
       0    2047    2049    2050    2051    2052    2048    2049    2050    2051
    2052    2049    2051    2050    2051    2052    2052    2052       0    2054
    2055    2056    2057    2058    2059    2060    2061    2062    2063    2064
    2065    2066    2067    2068    2055    2056    2057    2058    2059    2060
    2061    2062    2063    2064    2069    2070    2071    2056    2057    2058
    2059    2060    2061    2062    2064    2065    2066    2067    2071    2072
    2057    2058    2059    2060    2061    2062    2067    2068    2072    2073
    2074    2058    2059    2063    2064    2065    2069    2070    2071    2075
    2076    2077    2063    2064    2060    2063    2064    2065    2066    2067
    2071    2075    2077    2061    2064    2065    2066    2067    2068    2072
    2078    2079    2062    2066    2067    2068    2072    2073    2074    2078
    2079    2080    2067    2068    2064    2069    2070    2071    2075    2076
    2081    2065    2069    2070    2071    2075    2077    2081    2071    2067
    2072    2068    2072    2073    2074    2078    2079    2082    2072    2073
    2074    2079    2080    2082    2083    2084    2070    2071    2075    2076
    2077    2081    2075    2076    2075    2076    2077    2081    2073    2078
    2079    2080    2082    2085    2086    2074    2078    2079    2080    2082
    2083    2084    2085    2086    2087    2079    2080    2076    2077    2081
    2081    2081    2079    2082    2080    2082    2083    2084    2085    2086
    2088    2082    2083    2084    2085    2087    2088       0    2083    2085
    2086    2087    2088    2084    2085    2086    2087    2088    2085    2087
    2086    2087    2088    2088    2088       0    2090    2091    2092    2093
    2094    2095    2096    2097    2098    2099    2100    2101    2102    2103
    2104    2091    2092    2093    2094    2095    2096    2097    2098    2099
    2100    2105    2106    2107    2092    2093    2094    2095    2096    2097
    2098    2100    2101    2102    2103    2107    2108    2093    2094    2095
    2096    2097    2098    2103    2104    2108    2109    2110    2094    2095
    2099    2100    2101    2105    2106    2107    2111    2112    2113    2099
    2100    2096    2099    2100    2101    2102    2103    2107    2111    2113
    2097    2100    2101    2102    2103    2104    2108    2114    2115    2098
    2102    2103    2104    2108    2109    2110    2114    2115    2116    2103
    2104    2100    2105    2106    2107    2111    2112    2117    2101    2105
    2106    2107    2111    2113    2117    2107    2103    2108    2104    2108
    2109    2110    2114    2115    2118    2108    2109    2110    2115    2116
    2118    2119    2120    2106    2107    2111    2112    2113    2117    2111
    2112    2111    2112    2113    2117    2109    2114    2115    2116    2118
    2121    2122    2110    2114    2115    2116    2118    2119    2120    2121
    2122    2123    2115    2116    2112    2113    2117    2117    2117    2115
    2118    2116    2118    2119    2120    2121    2122    2124    2118    2119
    2120    2121    2123    2124       0    2119    2121    2122    2123    2124
    2120    2121    2122    2123    2124    2121    2123    2122    2123    2124
    2124    2124       0    2126    2127    2128    2129    2130    2131    2132
    2133    2134    2135    2136    2137    2138    2139    2140    2127    2128
    2129    2130    2131    2132    2133    2134    2135    2136    2141    2142
    2143    2128    2129    2130    2131    2132    2133    2134    2136    2137
    2138    2139    2143    2144    2129    2130    2131    2132    2133    2134
    2139    2140    2144    2145    2146    2130    2131    2135    2136    2137
    2141    2142    2143    2147    2148    2149    2135    2136    2132    2135
    2136    2137    2138    2139    2143    2147    2149    2133    2136    2137
    2138    2139    2140    2144    2150    2151    2134    2138    2139    2140
    2144    2145    2146    2150    2151    2152    2139    2140    2136    2141
    2142    2143    2147    2148    2153    2137    2141    2142    2143    2147
    2149    2153    2143    2139    2144    2140    2144    2145    2146    2150
    2151    2154    2144    2145    2146    2151    2152    2154    2155    2156
    2142    2143    2147    2148    2149    2153    2147    2148    2147    2148
    2149    2153    2145    2150    2151    2152    2154    2157    2158    2146
    2150    2151    2152    2154    2155    2156    2157    2158    2159    2151
    2152    2148    2149    2153    2153    2153    2151    2154    2152    2154
    2155    2156    2157    2158    2160    2154    2155    2156    2157    2159
    2160       0    2155    2157    2158    2159    2160    2156    2157    2158
    2159    2160    2157    2159    2158    2159    2160    2160    2160       0
    2162    2163    2164    2165    2166    2167    2168    2169    2170    2171
    2172    2173    2174    2175    2176    2163    2164    2165    2166    2167
    2168    2169    2170    2171    2172    2177    2178    2179    2164    2165
    2166    2167    2168    2169    2170    2172    2173    2174    2175    2179
    2180    2165    2166    2167    2168    2169    2170    2175    2176    2180
    2181    2182    2166    2167    2171    2172    2173    2177    2178    2179
    2183    2184    2185    2171    2172    2168    2171    2172    2173    2174
    2175    2179    2183    2185    2169    2172    2173    2174    2175    2176
    2180    2186    2187    2170    2174    2175    2176    2180    2181    2182
    2186    2187    2188    2175    2176    2172    2177    2178    2179    2183
    2184    2189    2173    2177    2178    2179    2183    2185    2189    2179
    2175    2180    2176    2180    2181    2182    2186    2187    2190    2180
    2181    2182    2187    2188    2190    2191    2192    2178    2179    2183
    2184    2185    2189    2183    2184    2183    2184    2185    2189    2181
    2186    2187    2188    2190    2193    2194    2182    2186    2187    2188
    2190    2191    2192    2193    2194    2195    2187    2188    2184    2185
    2189    2189    2189    2187    2190    2188    2190    2191    2192    2193
    2194    2196    2190    2191    2192    2193    2195    2196       0    2191
    2193    2194    2195    2196    2192    2193    2194    2195    2196    2193
    2195    2194    2195    2196    2196    2196       0    2198    2199    2200
    2201    2202    2203    2204    2205    2206    2207    2208    2209    2210
    2211    2212    2199    2200    2201    2202    2203    2204    2205    2206
    2207    2208    2213    2214    2215    2200    2201    2202    2203    2204
    2205    2206    2208    2209    2210    2211    2215    2216    2201    2202
    2203    2204    2205    2206    2211    2212    2216    2217    2218    2202
    2203    2207    2208    2209    2213    2214    2215    2219    2220    2221
    2207    2208    2204    2207    2208    2209    2210    2211    2215    2219
    2221    2205    2208    2209    2210    2211    2212    2216    2222    2223
    2206    2210    2211    2212    2216    2217    2218    2222    2223    2224
    2211    2212    2208    2213    2214    2215    2219    2220    2225    2209
    2213    2214    2215    2219    2221    2225    2215    2211    2216    2212
    2216    2217    2218    2222    2223    2226    2216    2217    2218    2223
    2224    2226    2227    2228    2214    2215    2219    2220    2221    2225
    2219    2220    2219    2220    2221    2225    2217    2222    2223    2224
    2226    2229    2230    2218    2222    2223    2224    2226    2227    2228
    2229    2230    2231    2223    2224    2220    2221    2225    2225    2225
    2223    2226    2224    2226    2227    2228    2229    2230    2232    2226
    2227    2228    2229    2231    2232       0    2227    2229    2230    2231
    2232    2228    2229    2230    2231    2232    2229    2231    2230    2231
    2232    2232    2232       0    2234    2235    2236    2237    2238    2239
    2240    2241    2242    2243    2244    2245    2246    2247    2248    2235
    2236    2237    2238    2239    2240    2241    2242    2243    2244    2249
    2250    2251    2236    2237    2238    2239    2240    2241    2242    2244
    2245    2246    2247    2251    2252    2237    2238    2239    2240    2241
    2242    2247    2248    2252    2253    2254    2238    2239    2243    2244
    2245    2249    2250    2251    2255    2256    2257    2243    2244    2240
    2243    2244    2245    2246    2247    2251    2255    2257    2241    2244
    2245    2246    2247    2248    2252    2258    2259    2242    2246    2247
    2248    2252    2253    2254    2258    2259    2260    2247    2248    2244
    2249    2250    2251    2255    2256    2261    2245    2249    2250    2251
    2255    2257    2261    2251    2247    2252    2248    2252    2253    2254
    2258    2259    2262    2252    2253    2254    2259    2260    2262    2263
    2264    2250    2251    2255    2256    2257    2261    2255    2256    2255
    2256    2257    2261    2253    2258    2259    2260    2262    2265    2266
    2254    2258    2259    2260    2262    2263    2264    2265    2266    2267
    2259    2260    2256    2257    2261    2261    2261    2259    2262    2260
    2262    2263    2264    2265    2266    2268    2262    2263    2264    2265
    2267    2268       0    2263    2265    2266    2267    2268    2264    2265
    2266    2267    2268    2265    2267    2266    2267    2268    2268    2268
       0    2270    2271    2272    2273    2274    2275    2276    2277    2278
    2279    2280    2281    2282    2283    2284    2271    2272    2273    2274
    2275    2276    2277    2278    2279    2280    2285    2286    2287    2272
    2273    2274    2275    2276    2277    2278    2280    2281    2282    2283
    2287    2288    2273    2274    2275    2276    2277    2278    2283    2284
    2288    2289    2290    2274    2275    2279    2280    2281    2285    2286
    2287    2291    2292    2293    2279    2280    2276    2279    2280    2281
    2282    2283    2287    2291    2293    2277    2280    2281    2282    2283
    2284    2288    2294    2295    2278    2282    2283    2284    2288    2289
    2290    2294    2295    2296    2283    2284    2280    2285    2286    2287
    2291    2292    2297    2281    2285    2286    2287    2291    2293    2297
    2287    2283    2288    2284    2288    2289    2290    2294    2295    2298
    2288    2289    2290    2295    2296    2298    2299    2300    2286    2287
    2291    2292    2293    2297    2291    2292    2291    2292    2293    2297
    2289    2294    2295    2296    2298    2301    2302    2290    2294    2295
    2296    2298    2299    2300    2301    2302    2303    2295    2296    2292
    2293    2297    2297    2297    2295    2298    2296    2298    2299    2300
    2301    2302    2304    2298    2299    2300    2301    2303    2304       0
    2299    2301    2302    2303    2304    2300    2301    2302    2303    2304
    2301    2303    2302    2303    2304    2304    2304       0    2306    2307
    2308    2309    2310    2311    2312    2313    2314    2315    2316    2317
    2318    2319    2320    2307    2308    2309    2310    2311    2312    2313
    2314    2315    2316    2321    2322    2323    2308    2309    2310    2311
    2312    2313    2314    2316    2317    2318    2319    2323    2324    2309
    2310    2311    2312    2313    2314    2319    2320    2324    2325    2326
    2310    2311    2315    2316    2317    2321    2322    2323    2327    2328
    2329    2315    2316    2312    2315    2316    2317    2318    2319    2323
    2327    2329    2313    2316    2317    2318    2319    2320    2324    2330
    2331    2314    2318    2319    2320    2324    2325    2326    2330    2331
    2332    2319    2320    2316    2321    2322    2323    2327    2328    2333
    2317    2321    2322    2323    2327    2329    2333    2323    2319    2324
    2320    2324    2325    2326    2330    2331    2334    2324    2325    2326
    2331    2332    2334    2335    2336    2322    2323    2327    2328    2329
    2333    2327    2328    2327    2328    2329    2333    2325    2330    2331
    2332    2334    2337    2338    2326    2330    2331    2332    2334    2335
    2336    2337    2338    2339    2331    2332    2328    2329    2333    2333
    2333    2331    2334    2332    2334    2335    2336    2337    2338    2340
    2334    2335    2336    2337    2339    2340       0    2335    2337    2338
    2339    2340    2336    2337    2338    2339    2340    2337    2339    2338
    2339    2340    2340    2340       0    2342    2343    2344    2345    2346
    2347    2348    2349    2350    2351    2352    2353    2354    2355    2356
    2343    2344    2345    2346    2347    2348    2349    2350    2351    2352
    2357    2358    2359    2344    2345    2346    2347    2348    2349    2350
    2352    2353    2354    2355    2359    2360    2345    2346    2347    2348
    2349    2350    2355    2356    2360    2361    2362    2346    2347    2351
    2352    2353    2357    2358    2359    2363    2364    2365    2351    2352
    2348    2351    2352    2353    2354    2355    2359    2363    2365    2349
    2352    2353    2354    2355    2356    2360    2366    2367    2350    2354
    2355    2356    2360    2361    2362    2366    2367    2368    2355    2356
    2352    2357    2358    2359    2363    2364    2369    2353    2357    2358
    2359    2363    2365    2369    2359    2355    2360    2356    2360    2361
    2362    2366    2367    2370    2360    2361    2362    2367    2368    2370
    2371    2372    2358    2359    2363    2364    2365    2369    2363    2364
    2363    2364    2365    2369    2361    2366    2367    2368    2370    2373
    2374    2362    2366    2367    2368    2370    2371    2372    2373    2374
    2375    2367    2368    2364    2365    2369    2369    2369    2367    2370
    2368    2370    2371    2372    2373    2374    2376    2370    2371    2372
    2373    2375    2376       0    2371    2373    2374    2375    2376    2372
    2373    2374    2375    2376    2373    2375    2374    2375    2376    2376
    2376       0    2378    2379    2380    2381    2382    2383    2384    2385
    2386    2387    2388    2389    2390    2391    2392    2379    2380    2381
    2382    2383    2384    2385    2386    2387    2388    2393    2394    2395
    2380    2381    2382    2383    2384    2385    2386    2388    2389    2390
    2391    2395    2396    2381    2382    2383    2384    2385    2386    2391
    2392    2396    2397    2398    2382    2383    2387    2388    2389    2393
    2394    2395    2399    2400    2401    2387    2388    2384    2387    2388
    2389    2390    2391    2395    2399    2401    2385    2388    2389    2390
    2391    2392    2396    2402    2403    2386    2390    2391    2392    2396
    2397    2398    2402    2403    2404    2391    2392    2388    2393    2394
    2395    2399    2400    2405    2389    2393    2394    2395    2399    2401
    2405    2395    2391    2396    2392    2396    2397    2398    2402    2403
    2406    2396    2397    2398    2403    2404    2406    2407    2408    2394
    2395    2399    2400    2401    2405    2399    2400    2399    2400    2401
    2405    2397    2402    2403    2404    2406    2409    2410    2398    2402
    2403    2404    2406    2407    2408    2409    2410    2411    2403    2404
    2400    2401    2405    2405    2405    2403    2406    2404    2406    2407
    2408    2409    2410    2412    2406    2407    2408    2409    2411    2412
       0    2407    2409    2410    2411    2412    2408    2409    2410    2411
    2412    2409    2411    2410    2411    2412    2412    2412       0    2414
    2415    2416    2417    2418    2419    2420    2421    2422    2423    2424
    2425    2426    2427    2428    2415    2416    2417    2418    2419    2420
    2421    2422    2423    2424    2429    2430    2431    2416    2417    2418
    2419    2420    2421    2422    2424    2425    2426    2427    2431    2432
    2417    2418    2419    2420    2421    2422    2427    2428    2432    2433
    2434    2418    2419    2423    2424    2425    2429    2430    2431    2435
    2436    2437    2423    2424    2420    2423    2424    2425    2426    2427
    2431    2435    2437    2421    2424    2425    2426    2427    2428    2432
    2438    2439    2422    2426    2427    2428    2432    2433    2434    2438
    2439    2440    2427    2428    2424    2429    2430    2431    2435    2436
    2441    2425    2429    2430    2431    2435    2437    2441    2431    2427
    2432    2428    2432    2433    2434    2438    2439    2442    2432    2433
    2434    2439    2440    2442    2443    2444    2430    2431    2435    2436
    2437    2441    2435    2436    2435    2436    2437    2441    2433    2438
    2439    2440    2442    2445    2446    2434    2438    2439    2440    2442
    2443    2444    2445    2446    2447    2439    2440    2436    2437    2441
    2441    2441    2439    2442    2440    2442    2443    2444    2445    2446
    2448    2442    2443    2444    2445    2447    2448       0    2443    2445
    2446    2447    2448    2444    2445    2446    2447    2448    2445    2447
    2446    2447    2448    2448    2448       0    2450    2451    2452    2453
    2454    2455    2456    2457    2458    2459    2460    2461    2462    2463
    2464    2451    2452    2453    2454    2455    2456    2457    2458    2459
    2460    2465    2466    2467    2452    2453    2454    2455    2456    2457
    2458    2460    2461    2462    2463    2467    2468    2453    2454    2455
    2456    2457    2458    2463    2464    2468    2469    2470    2454    2455
    2459    2460    2461    2465    2466    2467    2471    2472    2473    2459
    2460    2456    2459    2460    2461    2462    2463    2467    2471    2473
    2457    2460    2461    2462    2463    2464    2468    2474    2475    2458
    2462    2463    2464    2468    2469    2470    2474    2475    2476    2463
    2464    2460    2465    2466    2467    2471    2472    2477    2461    2465
    2466    2467    2471    2473    2477    2467    2463    2468    2464    2468
    2469    2470    2474    2475    2478    2468    2469    2470    2475    2476
    2478    2479    2480    2466    2467    2471    2472    2473    2477    2471
    2472    2471    2472    2473    2477    2469    2474    2475    2476    2478
    2481    2482    2470    2474    2475    2476    2478    2479    2480    2481
    2482    2483    2475    2476    2472    2473    2477    2477    2477    2475
    2478    2476    2478    2479    2480    2481    2482    2484    2478    2479
    2480    2481    2483    2484       0    2479    2481    2482    2483    2484
    2480    2481    2482    2483    2484    2481    2483    2482    2483    2484
    2484    2484       0    2486    2487    2488    2489    2490    2491    2492
    2493    2494    2495    2496    2497    2498    2499    2500    2487    2488
    2489    2490    2491    2492    2493    2494    2495    2496    2501    2502
    2503    2488    2489    2490    2491    2492    2493    2494    2496    2497
    2498    2499    2503    2504    2489    2490    2491    2492    2493    2494
    2499    2500    2504    2505    2506    2490    2491    2495    2496    2497
    2501    2502    2503    2507    2508    2509    2495    2496    2492    2495
    2496    2497    2498    2499    2503    2507    2509    2493    2496    2497
    2498    2499    2500    2504    2510    2511    2494    2498    2499    2500
    2504    2505    2506    2510    2511    2512    2499    2500    2496    2501
    2502    2503    2507    2508    2513    2497    2501    2502    2503    2507
    2509    2513    2503    2499    2504    2500    2504    2505    2506    2510
    2511    2514    2504    2505    2506    2511    2512    2514    2515    2516
    2502    2503    2507    2508    2509    2513    2507    2508    2507    2508
    2509    2513    2505    2510    2511    2512    2514    2517    2518    2506
    2510    2511    2512    2514    2515    2516    2517    2518    2519    2511
    2512    2508    2509    2513    2513    2513    2511    2514    2512    2514
    2515    2516    2517    2518    2520    2514    2515    2516    2517    2519
    2520       0    2515    2517    2518    2519    2520    2516    2517    2518
    2519    2520    2517    2519    2518    2519    2520    2520    2520       0
    2522    2523    2524    2525    2526    2527    2528    2529    2530    2531
    2532    2533    2534    2535    2536    2523    2524    2525    2526    2527
    2528    2529    2530    2531    2532    2537    2538    2539    2524    2525
    2526    2527    2528    2529    2530    2532    2533    2534    2535    2539
    2540    2525    2526    2527    2528    2529    2530    2535    2536    2540
    2541    2542    2526    2527    2531    2532    2533    2537    2538    2539
    2543    2544    2545    2531    2532    2528    2531    2532    2533    2534
    2535    2539    2543    2545    2529    2532    2533    2534    2535    2536
    2540    2546    2547    2530    2534    2535    2536    2540    2541    2542
    2546    2547    2548    2535    2536    2532    2537    2538    2539    2543
    2544    2549    2533    2537    2538    2539    2543    2545    2549    2539
    2535    2540    2536    2540    2541    2542    2546    2547    2550    2540
    2541    2542    2547    2548    2550    2551    2552    2538    2539    2543
    2544    2545    2549    2543    2544    2543    2544    2545    2549    2541
    2546    2547    2548    2550    2553    2554    2542    2546    2547    2548
    2550    2551    2552    2553    2554    2555    2547    2548    2544    2545
    2549    2549    2549    2547    2550    2548    2550    2551    2552    2553
    2554    2556    2550    2551    2552    2553    2555    2556       0    2551
    2553    2554    2555    2556    2552    2553    2554    2555    2556    2553
    2555    2554    2555    2556    2556    2556       0    2558    2559    2560
    2561    2562    2563    2564    2565    2566    2567    2568    2569    2570
    2571    2572    2559    2560    2561    2562    2563    2564    2565    2566
    2567    2568    2573    2574    2575    2560    2561    2562    2563    2564
    2565    2566    2568    2569    2570    2571    2575    2576    2561    2562
    2563    2564    2565    2566    2571    2572    2576    2577    2578    2562
    2563    2567    2568    2569    2573    2574    2575    2579    2580    2581
    2567    2568    2564    2567    2568    2569    2570    2571    2575    2579
    2581    2565    2568    2569    2570    2571    2572    2576    2582    2583
    2566    2570    2571    2572    2576    2577    2578    2582    2583    2584
    2571    2572    2568    2573    2574    2575    2579    2580    2585    2569
    2573    2574    2575    2579    2581    2585    2575    2571    2576    2572
    2576    2577    2578    2582    2583    2586    2576    2577    2578    2583
    2584    2586    2587    2588    2574    2575    2579    2580    2581    2585
    2579    2580    2579    2580    2581    2585    2577    2582    2583    2584
    2586    2589    2590    2578    2582    2583    2584    2586    2587    2588
    2589    2590    2591    2583    2584    2580    2581    2585    2585    2585
    2583    2586    2584    2586    2587    2588    2589    2590    2592    2586
    2587    2588    2589    2591    2592       0    2587    2589    2590    2591
    2592    2588    2589    2590    2591    2592    2589    2591    2590    2591
    2592    2592    2592       0    2594    2595    2596    2597    2598    2599
    2600    2601    2602    2603    2604    2605    2606    2607    2608    2595
    2596    2597    2598    2599    2600    2601    2602    2603    2604    2609
    2610    2611    2596    2597    2598    2599    2600    2601    2602    2604
    2605    2606    2607    2611    2612    2597    2598    2599    2600    2601
    2602    2607    2608    2612    2613    2614    2598    2599    2603    2604
    2605    2609    2610    2611    2615    2616    2617    2603    2604    2600
    2603    2604    2605    2606    2607    2611    2615    2617    2601    2604
    2605    2606    2607    2608    2612    2618    2619    2602    2606    2607
    2608    2612    2613    2614    2618    2619    2620    2607    2608    2604
    2609    2610    2611    2615    2616    2621    2605    2609    2610    2611
    2615    2617    2621    2611    2607    2612    2608    2612    2613    2614
    2618    2619    2622    2612    2613    2614    2619    2620    2622    2623
    2624    2610    2611    2615    2616    2617    2621    2615    2616    2615
    2616    2617    2621    2613    2618    2619    2620    2622    2625    2626
    2614    2618    2619    2620    2622    2623    2624    2625    2626    2627
    2619    2620    2616    2617    2621    2621    2621    2619    2622    2620
    2622    2623    2624    2625    2626    2628    2622    2623    2624    2625
    2627    2628       0    2623    2625    2626    2627    2628    2624    2625
    2626    2627    2628    2625    2627    2626    2627    2628    2628    2628
       0    2630    2631    2632    2633    2634    2635    2636    2637    2638
    2639    2640    2641    2642    2643    2644    2631    2632    2633    2634
    2635    2636    2637    2638    2639    2640    2645    2646    2647    2632
    2633    2634    2635    2636    2637    2638    2640    2641    2642    2643
    2647    2648    2633    2634    2635    2636    2637    2638    2643    2644
    2648    2649    2650    2634    2635    2639    2640    2641    2645    2646
    2647    2651    2652    2653    2639    2640    2636    2639    2640    2641
    2642    2643    2647    2651    2653    2637    2640    2641    2642    2643
    2644    2648    2654    2655    2638    2642    2643    2644    2648    2649
    2650    2654    2655    2656    2643    2644    2640    2645    2646    2647
    2651    2652    2657    2641    2645    2646    2647    2651    2653    2657
    2647    2643    2648    2644    2648    2649    2650    2654    2655    2658
    2648    2649    2650    2655    2656    2658    2659    2660    2646    2647
    2651    2652    2653    2657    2651    2652    2651    2652    2653    2657
    2649    2654    2655    2656    2658    2661    2662    2650    2654    2655
    2656    2658    2659    2660    2661    2662    2663    2655    2656    2652
    2653    2657    2657    2657    2655    2658    2656    2658    2659    2660
    2661    2662    2664    2658    2659    2660    2661    2663    2664       0
    2659    2661    2662    2663    2664    2660    2661    2662    2663    2664
    2661    2663    2662    2663    2664    2664    2664       0    2666    2667
    2668    2669    2670    2671    2672    2673    2674    2675    2676    2677
    2678    2679    2680    2667    2668    2669    2670    2671    2672    2673
    2674    2675    2676    2681    2682    2683    2668    2669    2670    2671
    2672    2673    2674    2676    2677    2678    2679    2683    2684    2669
    2670    2671    2672    2673    2674    2679    2680    2684    2685    2686
    2670    2671    2675    2676    2677    2681    2682    2683    2687    2688
    2689    2675    2676    2672    2675    2676    2677    2678    2679    2683
    2687    2689    2673    2676    2677    2678    2679    2680    2684    2690
    2691    2674    2678    2679    2680    2684    2685    2686    2690    2691
    2692    2679    2680    2676    2681    2682    2683    2687    2688    2693
    2677    2681    2682    2683    2687    2689    2693    2683    2679    2684
    2680    2684    2685    2686    2690    2691    2694    2684    2685    2686
    2691    2692    2694    2695    2696    2682    2683    2687    2688    2689
    2693    2687    2688    2687    2688    2689    2693    2685    2690    2691
    2692    2694    2697    2698    2686    2690    2691    2692    2694    2695
    2696    2697    2698    2699    2691    2692    2688    2689    2693    2693
    2693    2691    2694    2692    2694    2695    2696    2697    2698    2700
    2694    2695    2696    2697    2699    2700       0    2695    2697    2698
    2699    2700    2696    2697    2698    2699    2700    2697    2699    2698
    2699    2700    2700    2700       0    2702    2703    2704    2705    2706
    2707    2708    2709    2710    2711    2712    2713    2714    2715    2716
    2703    2704    2705    2706    2707    2708    2709    2710    2711    2712
    2717    2718    2719    2704    2705    2706    2707    2708    2709    2710
    2712    2713    2714    2715    2719    2720    2705    2706    2707    2708
    2709    2710    2715    2716    2720    2721    2722    2706    2707    2711
    2712    2713    2717    2718    2719    2723    2724    2725    2711    2712
    2708    2711    2712    2713    2714    2715    2719    2723    2725    2709
    2712    2713    2714    2715    2716    2720    2726    2727    2710    2714
    2715    2716    2720    2721    2722    2726    2727    2728    2715    2716
    2712    2717    2718    2719    2723    2724    2729    2713    2717    2718
    2719    2723    2725    2729    2719    2715    2720    2716    2720    2721
    2722    2726    2727    2730    2720    2721    2722    2727    2728    2730
    2731    2732    2718    2719    2723    2724    2725    2729    2723    2724
    2723    2724    2725    2729    2721    2726    2727    2728    2730    2733
    2734    2722    2726    2727    2728    2730    2731    2732    2733    2734
    2735    2727    2728    2724    2725    2729    2729    2729    2727    2730
    2728    2730    2731    2732    2733    2734    2736    2730    2731    2732
    2733    2735    2736       0    2731    2733    2734    2735    2736    2732
    2733    2734    2735    2736    2733    2735    2734    2735    2736    2736
    2736       0    2738    2739    2740    2741    2742    2743    2744    2745
    2746    2747    2748    2749    2750    2751    2752    2739    2740    2741
    2742    2743    2744    2745    2746    2747    2748    2753    2754    2755
    2740    2741    2742    2743    2744    2745    2746    2748    2749    2750
    2751    2755    2756    2741    2742    2743    2744    2745    2746    2751
    2752    2756    2757    2758    2742    2743    2747    2748    2749    2753
    2754    2755    2759    2760    2761    2747    2748    2744    2747    2748
    2749    2750    2751    2755    2759    2761    2745    2748    2749    2750
    2751    2752    2756    2762    2763    2746    2750    2751    2752    2756
    2757    2758    2762    2763    2764    2751    2752    2748    2753    2754
    2755    2759    2760    2765    2749    2753    2754    2755    2759    2761
    2765    2755    2751    2756    2752    2756    2757    2758    2762    2763
    2766    2756    2757    2758    2763    2764    2766    2767    2768    2754
    2755    2759    2760    2761    2765    2759    2760    2759    2760    2761
    2765    2757    2762    2763    2764    2766    2769    2770    2758    2762
    2763    2764    2766    2767    2768    2769    2770    2771    2763    2764
    2760    2761    2765    2765    2765    2763    2766    2764    2766    2767
    2768    2769    2770    2772    2766    2767    2768    2769    2771    2772
       0    2767    2769    2770    2771    2772    2768    2769    2770    2771
    2772    2769    2771    2770    2771    2772    2772    2772       0    2774
    2775    2776    2777    2778    2779    2780    2781    2782    2783    2784
    2785    2786    2787    2788    2775    2776    2777    2778    2779    2780
    2781    2782    2783    2784    2789    2790    2791    2776    2777    2778
    2779    2780    2781    2782    2784    2785    2786    2787    2791    2792
    2777    2778    2779    2780    2781    2782    2787    2788    2792    2793
    2794    2778    2779    2783    2784    2785    2789    2790    2791    2795
    2796    2797    2783    2784    2780    2783    2784    2785    2786    2787
    2791    2795    2797    2781    2784    2785    2786    2787    2788    2792
    2798    2799    2782    2786    2787    2788    2792    2793    2794    2798
    2799    2800    2787    2788    2784    2789    2790    2791    2795    2796
    2801    2785    2789    2790    2791    2795    2797    2801    2791    2787
    2792    2788    2792    2793    2794    2798    2799    2802    2792    2793
    2794    2799    2800    2802    2803    2804    2790    2791    2795    2796
    2797    2801    2795    2796    2795    2796    2797    2801    2793    2798
    2799    2800    2802    2805    2806    2794    2798    2799    2800    2802
    2803    2804    2805    2806    2807    2799    2800    2796    2797    2801
    2801    2801    2799    2802    2800    2802    2803    2804    2805    2806
    2808    2802    2803    2804    2805    2807    2808       0    2803    2805
    2806    2807    2808    2804    2805    2806    2807    2808    2805    2807
    2806    2807    2808    2808    2808       0    2810    2811    2812    2813
    2814    2815    2816    2817    2818    2819    2820    2821    2822    2823
    2824    2811    2812    2813    2814    2815    2816    2817    2818    2819
    2820    2825    2826    2827    2812    2813    2814    2815    2816    2817
    2818    2820    2821    2822    2823    2827    2828    2813    2814    2815
    2816    2817    2818    2823    2824    2828    2829    2830    2814    2815
    2819    2820    2821    2825    2826    2827    2831    2832    2833    2819
    2820    2816    2819    2820    2821    2822    2823    2827    2831    2833
    2817    2820    2821    2822    2823    2824    2828    2834    2835    2818
    2822    2823    2824    2828    2829    2830    2834    2835    2836    2823
    2824    2820    2825    2826    2827    2831    2832    2837    2821    2825
    2826    2827    2831    2833    2837    2827    2823    2828    2824    2828
    2829    2830    2834    2835    2838    2828    2829    2830    2835    2836
    2838    2839    2840    2826    2827    2831    2832    2833    2837    2831
    2832    2831    2832    2833    2837    2829    2834    2835    2836    2838
    2841    2842    2830    2834    2835    2836    2838    2839    2840    2841
    2842    2843    2835    2836    2832    2833    2837    2837    2837    2835
    2838    2836    2838    2839    2840    2841    2842    2844    2838    2839
    2840    2841    2843    2844       0    2839    2841    2842    2843    2844
    2840    2841    2842    2843    2844    2841    2843    2842    2843    2844
    2844    2844       0    2846    2847    2848    2849    2850    2851    2852
    2853    2854    2855    2856    2857    2858    2859    2860    2847    2848
    2849    2850    2851    2852    2853    2854    2855    2856    2861    2862
    2863    2848    2849    2850    2851    2852    2853    2854    2856    2857
    2858    2859    2863    2864    2849    2850    2851    2852    2853    2854
    2859    2860    2864    2865    2866    2850    2851    2855    2856    2857
    2861    2862    2863    2867    2868    2869    2855    2856    2852    2855
    2856    2857    2858    2859    2863    2867    2869    2853    2856    2857
    2858    2859    2860    2864    2870    2871    2854    2858    2859    2860
    2864    2865    2866    2870    2871    2872    2859    2860    2856    2861
    2862    2863    2867    2868    2873    2857    2861    2862    2863    2867
    2869    2873    2863    2859    2864    2860    2864    2865    2866    2870
    2871    2874    2864    2865    2866    2871    2872    2874    2875    2876
    2862    2863    2867    2868    2869    2873    2867    2868    2867    2868
    2869    2873    2865    2870    2871    2872    2874    2877    2878    2866
    2870    2871    2872    2874    2875    2876    2877    2878    2879    2871
    2872    2868    2869    2873    2873    2873    2871    2874    2872    2874
    2875    2876    2877    2878    2880    2874    2875    2876    2877    2879
    2880       0    2875    2877    2878    2879    2880    2876    2877    2878
    2879    2880    2877    2879    2878    2879    2880    2880    2880       0
    2882    2883    2884    2885    2886    2887    2888    2889    2890    2891
    2892    2893    2894    2895    2896    2883    2884    2885    2886    2887
    2888    2889    2890    2891    2892    2897    2898    2899    2884    2885
    2886    2887    2888    2889    2890    2892    2893    2894    2895    2899
    2900    2885    2886    2887    2888    2889    2890    2895    2896    2900
    2901    2902    2886    2887    2891    2892    2893    2897    2898    2899
    2903    2904    2905    2891    2892    2888    2891    2892    2893    2894
    2895    2899    2903    2905    2889    2892    2893    2894    2895    2896
    2900    2906    2907    2890    2894    2895    2896    2900    2901    2902
    2906    2907    2908    2895    2896    2892    2897    2898    2899    2903
    2904    2909    2893    2897    2898    2899    2903    2905    2909    2899
    2895    2900    2896    2900    2901    2902    2906    2907    2910    2900
    2901    2902    2907    2908    2910    2911    2912    2898    2899    2903
    2904    2905    2909    2903    2904    2903    2904    2905    2909    2901
    2906    2907    2908    2910    2913    2914    2902    2906    2907    2908
    2910    2911    2912    2913    2914    2915    2907    2908    2904    2905
    2909    2909    2909    2907    2910    2908    2910    2911    2912    2913
    2914    2916    2910    2911    2912    2913    2915    2916       0    2911
    2913    2914    2915    2916    2912    2913    2914    2915    2916    2913
    2915    2914    2915    2916    2916    2916       0    2918    2919    2920
    2921    2922    2923    2924    2925    2926    2927    2928    2929    2930
    2931    2932    2919    2920    2921    2922    2923    2924    2925    2926
    2927    2928    2933    2934    2935    2920    2921    2922    2923    2924
    2925    2926    2928    2929    2930    2931    2935    2936    2921    2922
    2923    2924    2925    2926    2931    2932    2936    2937    2938    2922
    2923    2927    2928    2929    2933    2934    2935    2939    2940    2941
    2927    2928    2924    2927    2928    2929    2930    2931    2935    2939
    2941    2925    2928    2929    2930    2931    2932    2936    2942    2943
    2926    2930    2931    2932    2936    2937    2938    2942    2943    2944
    2931    2932    2928    2933    2934    2935    2939    2940    2945    2929
    2933    2934    2935    2939    2941    2945    2935    2931    2936    2932
    2936    2937    2938    2942    2943    2946    2936    2937    2938    2943
    2944    2946    2947    2948    2934    2935    2939    2940    2941    2945
    2939    2940    2939    2940    2941    2945    2937    2942    2943    2944
    2946    2949    2950    2938    2942    2943    2944    2946    2947    2948
    2949    2950    2951    2943    2944    2940    2941    2945    2945    2945
    2943    2946    2944    2946    2947    2948    2949    2950    2952    2946
    2947    2948    2949    2951    2952       0    2947    2949    2950    2951
    2952    2948    2949    2950    2951    2952    2949    2951    2950    2951
    2952    2952    2952       0    2954    2955    2956    2957    2958    2959
    2960    2961    2962    2963    2964    2965    2966    2967    2968    2955
    2956    2957    2958    2959    2960    2961    2962    2963    2964    2969
    2970    2971    2956    2957    2958    2959    2960    2961    2962    2964
    2965    2966    2967    2971    2972    2957    2958    2959    2960    2961
    2962    2967    2968    2972    2973    2974    2958    2959    2963    2964
    2965    2969    2970    2971    2975    2976    2977    2963    2964    2960
    2963    2964    2965    2966    2967    2971    2975    2977    2961    2964
    2965    2966    2967    2968    2972    2978    2979    2962    2966    2967
    2968    2972    2973    2974    2978    2979    2980    2967    2968    2964
    2969    2970    2971    2975    2976    2981    2965    2969    2970    2971
    2975    2977    2981    2971    2967    2972    2968    2972    2973    2974
    2978    2979    2982    2972    2973    2974    2979    2980    2982    2983
    2984    2970    2971    2975    2976    2977    2981    2975    2976    2975
    2976    2977    2981    2973    2978    2979    2980    2982    2985    2986
    2974    2978    2979    2980    2982    2983    2984    2985    2986    2987
    2979    2980    2976    2977    2981    2981    2981    2979    2982    2980
    2982    2983    2984    2985    2986    2988    2982    2983    2984    2985
    2987    2988       0    2983    2985    2986    2987    2988    2984    2985
    2986    2987    2988    2985    2987    2986    2987    2988    2988    2988
       0    2990    2991    2992    2993    2994    2995    2996    2997    2998
    2999    3000    3001    3002    3003    3004    2991    2992    2993    2994
    2995    2996    2997    2998    2999    3000    3005    3006    3007    2992
    2993    2994    2995    2996    2997    2998    3000    3001    3002    3003
    3007    3008    2993    2994    2995    2996    2997    2998    3003    3004
    3008    3009    3010    2994    2995    2999    3000    3001    3005    3006
    3007    3011    3012    3013    2999    3000    2996    2999    3000    3001
    3002    3003    3007    3011    3013    2997    3000    3001    3002    3003
    3004    3008    3014    3015    2998    3002    3003    3004    3008    3009
    3010    3014    3015    3016    3003    3004    3000    3005    3006    3007
    3011    3012    3017    3001    3005    3006    3007    3011    3013    3017
    3007    3003    3008    3004    3008    3009    3010    3014    3015    3018
    3008    3009    3010    3015    3016    3018    3019    3020    3006    3007
    3011    3012    3013    3017    3011    3012    3011    3012    3013    3017
    3009    3014    3015    3016    3018    3021    3022    3010    3014    3015
    3016    3018    3019    3020    3021    3022    3023    3015    3016    3012
    3013    3017    3017    3017    3015    3018    3016    3018    3019    3020
    3021    3022    3024    3018    3019    3020    3021    3023    3024       0
    3019    3021    3022    3023    3024    3020    3021    3022    3023    3024
    3021    3023    3022    3023    3024    3024    3024       0    3026    3027
    3028    3029    3030    3031    3032    3033    3034    3035    3036    3037
    3038    3039    3040    3027    3028    3029    3030    3031    3032    3033
    3034    3035    3036    3041    3042    3043    3028    3029    3030    3031
    3032    3033    3034    3036    3037    3038    3039    3043    3044    3029
    3030    3031    3032    3033    3034    3039    3040    3044    3045    3046
    3030    3031    3035    3036    3037    3041    3042    3043    3047    3048
    3049    3035    3036    3032    3035    3036    3037    3038    3039    3043
    3047    3049    3033    3036    3037    3038    3039    3040    3044    3050
    3051    3034    3038    3039    3040    3044    3045    3046    3050    3051
    3052    3039    3040    3036    3041    3042    3043    3047    3048    3053
    3037    3041    3042    3043    3047    3049    3053    3043    3039    3044
    3040    3044    3045    3046    3050    3051    3054    3044    3045    3046
    3051    3052    3054    3055    3056    3042    3043    3047    3048    3049
    3053    3047    3048    3047    3048    3049    3053    3045    3050    3051
    3052    3054    3057    3058    3046    3050    3051    3052    3054    3055
    3056    3057    3058    3059    3051    3052    3048    3049    3053    3053
    3053    3051    3054    3052    3054    3055    3056    3057    3058    3060
    3054    3055    3056    3057    3059    3060       0    3055    3057    3058
    3059    3060    3056    3057    3058    3059    3060    3057    3059    3058
    3059    3060    3060    3060       0    3062    3063    3064    3065    3066
    3067    3068    3069    3070    3071    3072    3073    3074    3075    3076
    3063    3064    3065    3066    3067    3068    3069    3070    3071    3072
    3077    3078    3079    3064    3065    3066    3067    3068    3069    3070
    3072    3073    3074    3075    3079    3080    3065    3066    3067    3068
    3069    3070    3075    3076    3080    3081    3082    3066    3067    3071
    3072    3073    3077    3078    3079    3083    3084    3085    3071    3072
    3068    3071    3072    3073    3074    3075    3079    3083    3085    3069
    3072    3073    3074    3075    3076    3080    3086    3087    3070    3074
    3075    3076    3080    3081    3082    3086    3087    3088    3075    3076
    3072    3077    3078    3079    3083    3084    3089    3073    3077    3078
    3079    3083    3085    3089    3079    3075    3080    3076    3080    3081
    3082    3086    3087    3090    3080    3081    3082    3087    3088    3090
    3091    3092    3078    3079    3083    3084    3085    3089    3083    3084
    3083    3084    3085    3089    3081    3086    3087    3088    3090    3093
    3094    3082    3086    3087    3088    3090    3091    3092    3093    3094
    3095    3087    3088    3084    3085    3089    3089    3089    3087    3090
    3088    3090    3091    3092    3093    3094    3096    3090    3091    3092
    3093    3095    3096       0    3091    3093    3094    3095    3096    3092
    3093    3094    3095    3096    3093    3095    3094    3095    3096    3096
    3096       0    3098    3099    3100    3101    3102    3103    3104    3105
    3106    3107    3108    3109    3110    3111    3112    3099    3100    3101
    3102    3103    3104    3105    3106    3107    3108    3113    3114    3115
    3100    3101    3102    3103    3104    3105    3106    3108    3109    3110
    3111    3115    3116    3101    3102    3103    3104    3105    3106    3111
    3112    3116    3117    3118    3102    3103    3107    3108    3109    3113
    3114    3115    3119    3120    3121    3107    3108    3104    3107    3108
    3109    3110    3111    3115    3119    3121    3105    3108    3109    3110
    3111    3112    3116    3122    3123    3106    3110    3111    3112    3116
    3117    3118    3122    3123    3124    3111    3112    3108    3113    3114
    3115    3119    3120    3125    3109    3113    3114    3115    3119    3121
    3125    3115    3111    3116    3112    3116    3117    3118    3122    3123
    3126    3116    3117    3118    3123    3124    3126    3127    3128    3114
    3115    3119    3120    3121    3125    3119    3120    3119    3120    3121
    3125    3117    3122    3123    3124    3126    3129    3130    3118    3122
    3123    3124    3126    3127    3128    3129    3130    3131    3123    3124
    3120    3121    3125    3125    3125    3123    3126    3124    3126    3127
    3128    3129    3130    3132    3126    3127    3128    3129    3131    3132
       0    3127    3129    3130    3131    3132    3128    3129    3130    3131
    3132    3129    3131    3130    3131    3132    3132    3132       0    3134
    3135    3136    3137    3138    3139    3140    3141    3142    3143    3144
    3145    3146    3147    3148    3135    3136    3137    3138    3139    3140
    3141    3142    3143    3144    3149    3150    3151    3136    3137    3138
    3139    3140    3141    3142    3144    3145    3146    3147    3151    3152
    3137    3138    3139    3140    3141    3142    3147    3148    3152    3153
    3154    3138    3139    3143    3144    3145    3149    3150    3151    3155
    3156    3157    3143    3144    3140    3143    3144    3145    3146    3147
    3151    3155    3157    3141    3144    3145    3146    3147    3148    3152
    3158    3159    3142    3146    3147    3148    3152    3153    3154    3158
    3159    3160    3147    3148    3144    3149    3150    3151    3155    3156
    3161    3145    3149    3150    3151    3155    3157    3161    3151    3147
    3152    3148    3152    3153    3154    3158    3159    3162    3152    3153
    3154    3159    3160    3162    3163    3164    3150    3151    3155    3156
    3157    3161    3155    3156    3155    3156    3157    3161    3153    3158
    3159    3160    3162    3165    3166    3154    3158    3159    3160    3162
    3163    3164    3165    3166    3167    3159    3160    3156    3157    3161
    3161    3161    3159    3162    3160    3162    3163    3164    3165    3166
    3168    3162    3163    3164    3165    3167    3168       0    3163    3165
    3166    3167    3168    3164    3165    3166    3167    3168    3165    3167
    3166    3167    3168    3168    3168       0    3170    3171    3172    3173
    3174    3175    3176    3177    3178    3179    3180    3181    3182    3183
    3184    3171    3172    3173    3174    3175    3176    3177    3178    3179
    3180    3185    3186    3187    3172    3173    3174    3175    3176    3177
    3178    3180    3181    3182    3183    3187    3188    3173    3174    3175
    3176    3177    3178    3183    3184    3188    3189    3190    3174    3175
    3179    3180    3181    3185    3186    3187    3191    3192    3193    3179
    3180    3176    3179    3180    3181    3182    3183    3187    3191    3193
    3177    3180    3181    3182    3183    3184    3188    3194    3195    3178
    3182    3183    3184    3188    3189    3190    3194    3195    3196    3183
    3184    3180    3185    3186    3187    3191    3192    3197    3181    3185
    3186    3187    3191    3193    3197    3187    3183    3188    3184    3188
    3189    3190    3194    3195    3198    3188    3189    3190    3195    3196
    3198    3199    3200    3186    3187    3191    3192    3193    3197    3191
    3192    3191    3192    3193    3197    3189    3194    3195    3196    3198
    3201    3202    3190    3194    3195    3196    3198    3199    3200    3201
    3202    3203    3195    3196    3192    3193    3197    3197    3197    3195
    3198    3196    3198    3199    3200    3201    3202    3204    3198    3199
    3200    3201    3203    3204       0    3199    3201    3202    3203    3204
    3200    3201    3202    3203    3204    3201    3203    3202    3203    3204
    3204    3204       0    3206    3207    3208    3209    3210    3211    3212
    3213    3214    3215    3216    3217    3218    3219    3220    3207    3208
    3209    3210    3211    3212    3213    3214    3215    3216    3221    3222
    3223    3208    3209    3210    3211    3212    3213    3214    3216    3217
    3218    3219    3223    3224    3209    3210    3211    3212    3213    3214
    3219    3220    3224    3225    3226    3210    3211    3215    3216    3217
    3221    3222    3223    3227    3228    3229    3215    3216    3212    3215
    3216    3217    3218    3219    3223    3227    3229    3213    3216    3217
    3218    3219    3220    3224    3230    3231    3214    3218    3219    3220
    3224    3225    3226    3230    3231    3232    3219    3220    3216    3221
    3222    3223    3227    3228    3233    3217    3221    3222    3223    3227
    3229    3233    3223    3219    3224    3220    3224    3225    3226    3230
    3231    3234    3224    3225    3226    3231    3232    3234    3235    3236
    3222    3223    3227    3228    3229    3233    3227    3228    3227    3228
    3229    3233    3225    3230    3231    3232    3234    3237    3238    3226
    3230    3231    3232    3234    3235    3236    3237    3238    3239    3231
    3232    3228    3229    3233    3233    3233    3231    3234    3232    3234
    3235    3236    3237    3238    3240    3234    3235    3236    3237    3239
    3240       0    3235    3237    3238    3239    3240    3236    3237    3238
    3239    3240    3237    3239    3238    3239    3240    3240    3240       0
    3242    3243    3244    3245    3246    3247    3248    3249    3250    3251
    3252    3253    3254    3255    3256    3243    3244    3245    3246    3247
    3248    3249    3250    3251    3252    3257    3258    3259    3244    3245
    3246    3247    3248    3249    3250    3252    3253    3254    3255    3259
    3260    3245    3246    3247    3248    3249    3250    3255    3256    3260
    3261    3262    3246    3247    3251    3252    3253    3257    3258    3259
    3263    3264    3265    3251    3252    3248    3251    3252    3253    3254
    3255    3259    3263    3265    3249    3252    3253    3254    3255    3256
    3260    3266    3267    3250    3254    3255    3256    3260    3261    3262
    3266    3267    3268    3255    3256    3252    3257    3258    3259    3263
    3264    3269    3253    3257    3258    3259    3263    3265    3269    3259
    3255    3260    3256    3260    3261    3262    3266    3267    3270    3260
    3261    3262    3267    3268    3270    3271    3272    3258    3259    3263
    3264    3265    3269    3263    3264    3263    3264    3265    3269    3261
    3266    3267    3268    3270    3273    3274    3262    3266    3267    3268
    3270    3271    3272    3273    3274    3275    3267    3268    3264    3265
    3269    3269    3269    3267    3270    3268    3270    3271    3272    3273
    3274    3276    3270    3271    3272    3273    3275    3276       0    3271
    3273    3274    3275    3276    3272    3273    3274    3275    3276    3273
    3275    3274    3275    3276    3276    3276       0    3278    3279    3280
    3281    3282    3283    3284    3285    3286    3287    3288    3289    3290
    3291    3292    3279    3280    3281    3282    3283    3284    3285    3286
    3287    3288    3293    3294    3295    3280    3281    3282    3283    3284
    3285    3286    3288    3289    3290    3291    3295    3296    3281    3282
    3283    3284    3285    3286    3291    3292    3296    3297    3298    3282
    3283    3287    3288    3289    3293    3294    3295    3299    3300    3301
    3287    3288    3284    3287    3288    3289    3290    3291    3295    3299
    3301    3285    3288    3289    3290    3291    3292    3296    3302    3303
    3286    3290    3291    3292    3296    3297    3298    3302    3303    3304
    3291    3292    3288    3293    3294    3295    3299    3300    3305    3289
    3293    3294    3295    3299    3301    3305    3295    3291    3296    3292
    3296    3297    3298    3302    3303    3306    3296    3297    3298    3303
    3304    3306    3307    3308    3294    3295    3299    3300    3301    3305
    3299    3300    3299    3300    3301    3305    3297    3302    3303    3304
    3306    3309    3310    3298    3302    3303    3304    3306    3307    3308
    3309    3310    3311    3303    3304    3300    3301    3305    3305    3305
    3303    3306    3304    3306    3307    3308    3309    3310    3312    3306
    3307    3308    3309    3311    3312       0    3307    3309    3310    3311
    3312    3308    3309    3310    3311    3312    3309    3311    3310    3311
    3312    3312    3312       0    3314    3315    3316    3317    3318    3319
    3320    3321    3322    3323    3324    3325    3326    3327    3328    3315
    3316    3317    3318    3319    3320    3321    3322    3323    3324    3329
    3330    3331    3316    3317    3318    3319    3320    3321    3322    3324
    3325    3326    3327    3331    3332    3317    3318    3319    3320    3321
    3322    3327    3328    3332    3333    3334    3318    3319    3323    3324
    3325    3329    3330    3331    3335    3336    3337    3323    3324    3320
    3323    3324    3325    3326    3327    3331    3335    3337    3321    3324
    3325    3326    3327    3328    3332    3338    3339    3322    3326    3327
    3328    3332    3333    3334    3338    3339    3340    3327    3328    3324
    3329    3330    3331    3335    3336    3341    3325    3329    3330    3331
    3335    3337    3341    3331    3327    3332    3328    3332    3333    3334
    3338    3339    3342    3332    3333    3334    3339    3340    3342    3343
    3344    3330    3331    3335    3336    3337    3341    3335    3336    3335
    3336    3337    3341    3333    3338    3339    3340    3342    3345    3346
    3334    3338    3339    3340    3342    3343    3344    3345    3346    3347
    3339    3340    3336    3337    3341    3341    3341    3339    3342    3340
    3342    3343    3344    3345    3346    3348    3342    3343    3344    3345
    3347    3348       0    3343    3345    3346    3347    3348    3344    3345
    3346    3347    3348    3345    3347    3346    3347    3348    3348    3348
       0    3350    3351    3352    3353    3354    3355    3356    3357    3358
    3359    3360    3361    3362    3363    3364    3351    3352    3353    3354
    3355    3356    3357    3358    3359    3360    3365    3366    3367    3352
    3353    3354    3355    3356    3357    3358    3360    3361    3362    3363
    3367    3368    3353    3354    3355    3356    3357    3358    3363    3364
    3368    3369    3370    3354    3355    3359    3360    3361    3365    3366
    3367    3371    3372    3373    3359    3360    3356    3359    3360    3361
    3362    3363    3367    3371    3373    3357    3360    3361    3362    3363
    3364    3368    3374    3375    3358    3362    3363    3364    3368    3369
    3370    3374    3375    3376    3363    3364    3360    3365    3366    3367
    3371    3372    3377    3361    3365    3366    3367    3371    3373    3377
    3367    3363    3368    3364    3368    3369    3370    3374    3375    3378
    3368    3369    3370    3375    3376    3378    3379    3380    3366    3367
    3371    3372    3373    3377    3371    3372    3371    3372    3373    3377
    3369    3374    3375    3376    3378    3381    3382    3370    3374    3375
    3376    3378    3379    3380    3381    3382    3383    3375    3376    3372
    3373    3377    3377    3377    3375    3378    3376    3378    3379    3380
    3381    3382    3384    3378    3379    3380    3381    3383    3384       0
    3379    3381    3382    3383    3384    3380    3381    3382    3383    3384
    3381    3383    3382    3383    3384    3384    3384       0    3386    3387
    3388    3389    3390    3391    3392    3393    3394    3395    3396    3397
    3398    3399    3400    3387    3388    3389    3390    3391    3392    3393
    3394    3395    3396    3401    3402    3403    3388    3389    3390    3391
    3392    3393    3394    3396    3397    3398    3399    3403    3404    3389
    3390    3391    3392    3393    3394    3399    3400    3404    3405    3406
    3390    3391    3395    3396    3397    3401    3402    3403    3407    3408
    3409    3395    3396    3392    3395    3396    3397    3398    3399    3403
    3407    3409    3393    3396    3397    3398    3399    3400    3404    3410
    3411    3394    3398    3399    3400    3404    3405    3406    3410    3411
    3412    3399    3400    3396    3401    3402    3403    3407    3408    3413
    3397    3401    3402    3403    3407    3409    3413    3403    3399    3404
    3400    3404    3405    3406    3410    3411    3414    3404    3405    3406
    3411    3412    3414    3415    3416    3402    3403    3407    3408    3409
    3413    3407    3408    3407    3408    3409    3413    3405    3410    3411
    3412    3414    3417    3418    3406    3410    3411    3412    3414    3415
    3416    3417    3418    3419    3411    3412    3408    3409    3413    3413
    3413    3411    3414    3412    3414    3415    3416    3417    3418    3420
    3414    3415    3416    3417    3419    3420       0    3415    3417    3418
    3419    3420    3416    3417    3418    3419    3420    3417    3419    3418
    3419    3420    3420    3420       0    3422    3423    3424    3425    3426
    3427    3428    3429    3430    3431    3432    3433    3434    3435    3436
    3423    3424    3425    3426    3427    3428    3429    3430    3431    3432
    3437    3438    3439    3424    3425    3426    3427    3428    3429    3430
    3432    3433    3434    3435    3439    3440    3425    3426    3427    3428
    3429    3430    3435    3436    3440    3441    3442    3426    3427    3431
    3432    3433    3437    3438    3439    3443    3444    3445    3431    3432
    3428    3431    3432    3433    3434    3435    3439    3443    3445    3429
    3432    3433    3434    3435    3436    3440    3446    3447    3430    3434
    3435    3436    3440    3441    3442    3446    3447    3448    3435    3436
    3432    3437    3438    3439    3443    3444    3449    3433    3437    3438
    3439    3443    3445    3449    3439    3435    3440    3436    3440    3441
    3442    3446    3447    3450    3440    3441    3442    3447    3448    3450
    3451    3452    3438    3439    3443    3444    3445    3449    3443    3444
    3443    3444    3445    3449    3441    3446    3447    3448    3450    3453
    3454    3442    3446    3447    3448    3450    3451    3452    3453    3454
    3455    3447    3448    3444    3445    3449    3449    3449    3447    3450
    3448    3450    3451    3452    3453    3454    3456    3450    3451    3452
    3453    3455    3456       0    3451    3453    3454    3455    3456    3452
    3453    3454    3455    3456    3453    3455    3454    3455    3456    3456
    3456       0    3458    3459    3460    3461    3462    3463    3464    3465
    3466    3467    3468    3469    3470    3471    3472    3459    3460    3461
    3462    3463    3464    3465    3466    3467    3468    3473    3474    3475
    3460    3461    3462    3463    3464    3465    3466    3468    3469    3470
    3471    3475    3476    3461    3462    3463    3464    3465    3466    3471
    3472    3476    3477    3478    3462    3463    3467    3468    3469    3473
    3474    3475    3479    3480    3481    3467    3468    3464    3467    3468
    3469    3470    3471    3475    3479    3481    3465    3468    3469    3470
    3471    3472    3476    3482    3483    3466    3470    3471    3472    3476
    3477    3478    3482    3483    3484    3471    3472    3468    3473    3474
    3475    3479    3480    3485    3469    3473    3474    3475    3479    3481
    3485    3475    3471    3476    3472    3476    3477    3478    3482    3483
    3486    3476    3477    3478    3483    3484    3486    3487    3488    3474
    3475    3479    3480    3481    3485    3479    3480    3479    3480    3481
    3485    3477    3482    3483    3484    3486    3489    3490    3478    3482
    3483    3484    3486    3487    3488    3489    3490    3491    3483    3484
    3480    3481    3485    3485    3485    3483    3486    3484    3486    3487
    3488    3489    3490    3492    3486    3487    3488    3489    3491    3492
       0    3487    3489    3490    3491    3492    3488    3489    3490    3491
    3492    3489    3491    3490    3491    3492    3492    3492       0    3494
    3495    3496    3497    3498    3499    3500    3501    3502    3503    3504
    3505    3506    3507    3508    3495    3496    3497    3498    3499    3500
    3501    3502    3503    3504    3509    3510    3511    3496    3497    3498
    3499    3500    3501    3502    3504    3505    3506    3507    3511    3512
    3497    3498    3499    3500    3501    3502    3507    3508    3512    3513
    3514    3498    3499    3503    3504    3505    3509    3510    3511    3515
    3516    3517    3503    3504    3500    3503    3504    3505    3506    3507
    3511    3515    3517    3501    3504    3505    3506    3507    3508    3512
    3518    3519    3502    3506    3507    3508    3512    3513    3514    3518
    3519    3520    3507    3508    3504    3509    3510    3511    3515    3516
    3521    3505    3509    3510    3511    3515    3517    3521    3511    3507
    3512    3508    3512    3513    3514    3518    3519    3522    3512    3513
    3514    3519    3520    3522    3523    3524    3510    3511    3515    3516
    3517    3521    3515    3516    3515    3516    3517    3521    3513    3518
    3519    3520    3522    3525    3526    3514    3518    3519    3520    3522
    3523    3524    3525    3526    3527    3519    3520    3516    3517    3521
    3521    3521    3519    3522    3520    3522    3523    3524    3525    3526
    3528    3522    3523    3524    3525    3527    3528       0    3523    3525
    3526    3527    3528    3524    3525    3526    3527    3528    3525    3527
    3526    3527    3528    3528    3528       0    3530    3531    3532    3533
    3534    3535    3536    3537    3538    3539    3540    3541    3542    3543
    3544    3531    3532    3533    3534    3535    3536    3537    3538    3539
    3540    3545    3546    3547    3532    3533    3534    3535    3536    3537
    3538    3540    3541    3542    3543    3547    3548    3533    3534    3535
    3536    3537    3538    3543    3544    3548    3549    3550    3534    3535
    3539    3540    3541    3545    3546    3547    3551    3552    3553    3539
    3540    3536    3539    3540    3541    3542    3543    3547    3551    3553
    3537    3540    3541    3542    3543    3544    3548    3554    3555    3538
    3542    3543    3544    3548    3549    3550    3554    3555    3556    3543
    3544    3540    3545    3546    3547    3551    3552    3557    3541    3545
    3546    3547    3551    3553    3557    3547    3543    3548    3544    3548
    3549    3550    3554    3555    3558    3548    3549    3550    3555    3556
    3558    3559    3560    3546    3547    3551    3552    3553    3557    3551
    3552    3551    3552    3553    3557    3549    3554    3555    3556    3558
    3561    3562    3550    3554    3555    3556    3558    3559    3560    3561
    3562    3563    3555    3556    3552    3553    3557    3557    3557    3555
    3558    3556    3558    3559    3560    3561    3562    3564    3558    3559
    3560    3561    3563    3564       0    3559    3561    3562    3563    3564
    3560    3561    3562    3563    3564    3561    3563    3562    3563    3564
    3564    3564       0    3566    3567    3568    3569    3570    3571    3572
    3573    3574    3575    3576    3577    3578    3579    3580    3567    3568
    3569    3570    3571    3572    3573    3574    3575    3576    3581    3582
    3583    3568    3569    3570    3571    3572    3573    3574    3576    3577
    3578    3579    3583    3584    3569    3570    3571    3572    3573    3574
    3579    3580    3584    3585    3586    3570    3571    3575    3576    3577
    3581    3582    3583    3587    3588    3589    3575    3576    3572    3575
    3576    3577    3578    3579    3583    3587    3589    3573    3576    3577
    3578    3579    3580    3584    3590    3591    3574    3578    3579    3580
    3584    3585    3586    3590    3591    3592    3579    3580    3576    3581
    3582    3583    3587    3588    3593    3577    3581    3582    3583    3587
    3589    3593    3583    3579    3584    3580    3584    3585    3586    3590
    3591    3594    3584    3585    3586    3591    3592    3594    3595    3596
    3582    3583    3587    3588    3589    3593    3587    3588    3587    3588
    3589    3593    3585    3590    3591    3592    3594    3597    3598    3586
    3590    3591    3592    3594    3595    3596    3597    3598    3599    3591
    3592    3588    3589    3593    3593    3593    3591    3594    3592    3594
    3595    3596    3597    3598    3600    3594    3595    3596    3597    3599
    3600       0    3595    3597    3598    3599    3600    3596    3597    3598
    3599    3600    3597    3599    3598    3599    3600    3600    3600       0
    3602    3603    3604    3605    3606    3607    3608    3609    3610    3611
    3612    3613    3614    3615    3616    3603    3604    3605    3606    3607
    3608    3609    3610    3611    3612    3617    3618    3619    3604    3605
    3606    3607    3608    3609    3610    3612    3613    3614    3615    3619
    3620    3605    3606    3607    3608    3609    3610    3615    3616    3620
    3621    3622    3606    3607    3611    3612    3613    3617    3618    3619
    3623    3624    3625    3611    3612    3608    3611    3612    3613    3614
    3615    3619    3623    3625    3609    3612    3613    3614    3615    3616
    3620    3626    3627    3610    3614    3615    3616    3620    3621    3622
    3626    3627    3628    3615    3616    3612    3617    3618    3619    3623
    3624    3629    3613    3617    3618    3619    3623    3625    3629    3619
    3615    3620    3616    3620    3621    3622    3626    3627    3630    3620
    3621    3622    3627    3628    3630    3631    3632    3618    3619    3623
    3624    3625    3629    3623    3624    3623    3624    3625    3629    3621
    3626    3627    3628    3630    3633    3634    3622    3626    3627    3628
    3630    3631    3632    3633    3634    3635    3627    3628    3624    3625
    3629    3629    3629    3627    3630    3628    3630    3631    3632    3633
    3634    3636    3630    3631    3632    3633    3635    3636       0    3631
    3633    3634    3635    3636    3632    3633    3634    3635    3636    3633
    3635    3634    3635    3636    3636    3636       0    3638    3639    3640
    3641    3642    3643    3644    3645    3646    3647    3648    3649    3650
    3651    3652    3639    3640    3641    3642    3643    3644    3645    3646
    3647    3648    3653    3654    3655    3640    3641    3642    3643    3644
    3645    3646    3648    3649    3650    3651    3655    3656    3641    3642
    3643    3644    3645    3646    3651    3652    3656    3657    3658    3642
    3643    3647    3648    3649    3653    3654    3655    3659    3660    3661
    3647    3648    3644    3647    3648    3649    3650    3651    3655    3659
    3661    3645    3648    3649    3650    3651    3652    3656    3662    3663
    3646    3650    3651    3652    3656    3657    3658    3662    3663    3664
    3651    3652    3648    3653    3654    3655    3659    3660    3665    3649
    3653    3654    3655    3659    3661    3665    3655    3651    3656    3652
    3656    3657    3658    3662    3663    3666    3656    3657    3658    3663
    3664    3666    3667    3668    3654    3655    3659    3660    3661    3665
    3659    3660    3659    3660    3661    3665    3657    3662    3663    3664
    3666    3669    3670    3658    3662    3663    3664    3666    3667    3668
    3669    3670    3671    3663    3664    3660    3661    3665    3665    3665
    3663    3666    3664    3666    3667    3668    3669    3670    3672    3666
    3667    3668    3669    3671    3672       0    3667    3669    3670    3671
    3672    3668    3669    3670    3671    3672    3669    3671    3670    3671
    3672    3672    3672       0    3674    3675    3676    3677    3678    3679
    3680    3681    3682    3683    3684    3685    3686    3687    3688    3675
    3676    3677    3678    3679    3680    3681    3682    3683    3684    3689
    3690    3691    3676    3677    3678    3679    3680    3681    3682    3684
    3685    3686    3687    3691    3692    3677    3678    3679    3680    3681
    3682    3687    3688    3692    3693    3694    3678    3679    3683    3684
    3685    3689    3690    3691    3695    3696    3697    3683    3684    3680
    3683    3684    3685    3686    3687    3691    3695    3697    3681    3684
    3685    3686    3687    3688    3692    3698    3699    3682    3686    3687
    3688    3692    3693    3694    3698    3699    3700    3687    3688    3684
    3689    3690    3691    3695    3696    3701    3685    3689    3690    3691
    3695    3697    3701    3691    3687    3692    3688    3692    3693    3694
    3698    3699    3702    3692    3693    3694    3699    3700    3702    3703
    3704    3690    3691    3695    3696    3697    3701    3695    3696    3695
    3696    3697    3701    3693    3698    3699    3700    3702    3705    3706
    3694    3698    3699    3700    3702    3703    3704    3705    3706    3707
    3699    3700    3696    3697    3701    3701    3701    3699    3702    3700
    3702    3703    3704    3705    3706    3708    3702    3703    3704    3705
    3707    3708       0    3703    3705    3706    3707    3708    3704    3705
    3706    3707    3708    3705    3707    3706    3707    3708    3708    3708
       0    3710    3711    3712    3713    3714    3715    3716    3717    3718
    3719    3720    3721    3722    3723    3724    3711    3712    3713    3714
    3715    3716    3717    3718    3719    3720    3725    3726    3727    3712
    3713    3714    3715    3716    3717    3718    3720    3721    3722    3723
    3727    3728    3713    3714    3715    3716    3717    3718    3723    3724
    3728    3729    3730    3714    3715    3719    3720    3721    3725    3726
    3727    3731    3732    3733    3719    3720    3716    3719    3720    3721
    3722    3723    3727    3731    3733    3717    3720    3721    3722    3723
    3724    3728    3734    3735    3718    3722    3723    3724    3728    3729
    3730    3734    3735    3736    3723    3724    3720    3725    3726    3727
    3731    3732    3737    3721    3725    3726    3727    3731    3733    3737
    3727    3723    3728    3724    3728    3729    3730    3734    3735    3738
    3728    3729    3730    3735    3736    3738    3739    3740    3726    3727
    3731    3732    3733    3737    3731    3732    3731    3732    3733    3737
    3729    3734    3735    3736    3738    3741    3742    3730    3734    3735
    3736    3738    3739    3740    3741    3742    3743    3735    3736    3732
    3733    3737    3737    3737    3735    3738    3736    3738    3739    3740
    3741    3742    3744    3738    3739    3740    3741    3743    3744       0
    3739    3741    3742    3743    3744    3740    3741    3742    3743    3744
    3741    3743    3742    3743    3744    3744    3744       0    3746    3747
    3748    3749    3750    3751    3752    3753    3754    3755    3756    3757
    3758    3759    3760    3747    3748    3749    3750    3751    3752    3753
    3754    3755    3756    3761    3762    3763    3748    3749    3750    3751
    3752    3753    3754    3756    3757    3758    3759    3763    3764    3749
    3750    3751    3752    3753    3754    3759    3760    3764    3765    3766
    3750    3751    3755    3756    3757    3761    3762    3763    3767    3768
    3769    3755    3756    3752    3755    3756    3757    3758    3759    3763
    3767    3769    3753    3756    3757    3758    3759    3760    3764    3770
    3771    3754    3758    3759    3760    3764    3765    3766    3770    3771
    3772    3759    3760    3756    3761    3762    3763    3767    3768    3773
    3757    3761    3762    3763    3767    3769    3773    3763    3759    3764
    3760    3764    3765    3766    3770    3771    3774    3764    3765    3766
    3771    3772    3774    3775    3776    3762    3763    3767    3768    3769
    3773    3767    3768    3767    3768    3769    3773    3765    3770    3771
    3772    3774    3777    3778    3766    3770    3771    3772    3774    3775
    3776    3777    3778    3779    3771    3772    3768    3769    3773    3773
    3773    3771    3774    3772    3774    3775    3776    3777    3778    3780
    3774    3775    3776    3777    3779    3780       0    3775    3777    3778
    3779    3780    3776    3777    3778    3779    3780    3777    3779    3778
    3779    3780    3780    3780       0    3782    3783    3784    3785    3786
    3787    3788    3789    3790    3791    3792    3793    3794    3795    3796
    3783    3784    3785    3786    3787    3788    3789    3790    3791    3792
    3797    3798    3799    3784    3785    3786    3787    3788    3789    3790
    3792    3793    3794    3795    3799    3800    3785    3786    3787    3788
    3789    3790    3795    3796    3800    3801    3802    3786    3787    3791
    3792    3793    3797    3798    3799    3803    3804    3805    3791    3792
    3788    3791    3792    3793    3794    3795    3799    3803    3805    3789
    3792    3793    3794    3795    3796    3800    3806    3807    3790    3794
    3795    3796    3800    3801    3802    3806    3807    3808    3795    3796
    3792    3797    3798    3799    3803    3804    3809    3793    3797    3798
    3799    3803    3805    3809    3799    3795    3800    3796    3800    3801
    3802    3806    3807    3810    3800    3801    3802    3807    3808    3810
    3811    3812    3798    3799    3803    3804    3805    3809    3803    3804
    3803    3804    3805    3809    3801    3806    3807    3808    3810    3813
    3814    3802    3806    3807    3808    3810    3811    3812    3813    3814
    3815    3807    3808    3804    3805    3809    3809    3809    3807    3810
    3808    3810    3811    3812    3813    3814    3816    3810    3811    3812
    3813    3815    3816       0    3811    3813    3814    3815    3816    3812
    3813    3814    3815    3816    3813    3815    3814    3815    3816    3816
    3816       0    3818    3819    3820    3821    3822    3823    3824    3825
    3826    3827    3828    3829    3830    3831    3832    3819    3820    3821
    3822    3823    3824    3825    3826    3827    3828    3833    3834    3835
    3820    3821    3822    3823    3824    3825    3826    3828    3829    3830
    3831    3835    3836    3821    3822    3823    3824    3825    3826    3831
    3832    3836    3837    3838    3822    3823    3827    3828    3829    3833
    3834    3835    3839    3840    3841    3827    3828    3824    3827    3828
    3829    3830    3831    3835    3839    3841    3825    3828    3829    3830
    3831    3832    3836    3842    3843    3826    3830    3831    3832    3836
    3837    3838    3842    3843    3844    3831    3832    3828    3833    3834
    3835    3839    3840    3845    3829    3833    3834    3835    3839    3841
    3845    3835    3831    3836    3832    3836    3837    3838    3842    3843
    3846    3836    3837    3838    3843    3844    3846    3847    3848    3834
    3835    3839    3840    3841    3845    3839    3840    3839    3840    3841
    3845    3837    3842    3843    3844    3846    3849    3850    3838    3842
    3843    3844    3846    3847    3848    3849    3850    3851    3843    3844
    3840    3841    3845    3845    3845    3843    3846    3844    3846    3847
    3848    3849    3850    3852    3846    3847    3848    3849    3851    3852
       0    3847    3849    3850    3851    3852    3848    3849    3850    3851
    3852    3849    3851    3850    3851    3852    3852    3852       0    3854
    3855    3856    3857    3858    3859    3860    3861    3862    3863    3864
    3865    3866    3867    3868    3855    3856    3857    3858    3859    3860
    3861    3862    3863    3864    3869    3870    3871    3856    3857    3858
    3859    3860    3861    3862    3864    3865    3866    3867    3871    3872
    3857    3858    3859    3860    3861    3862    3867    3868    3872    3873
    3874    3858    3859    3863    3864    3865    3869    3870    3871    3875
    3876    3877    3863    3864    3860    3863    3864    3865    3866    3867
    3871    3875    3877    3861    3864    3865    3866    3867    3868    3872
    3878    3879    3862    3866    3867    3868    3872    3873    3874    3878
    3879    3880    3867    3868    3864    3869    3870    3871    3875    3876
    3881    3865    3869    3870    3871    3875    3877    3881    3871    3867
    3872    3868    3872    3873    3874    3878    3879    3882    3872    3873
    3874    3879    3880    3882    3883    3884    3870    3871    3875    3876
    3877    3881    3875    3876    3875    3876    3877    3881    3873    3878
    3879    3880    3882    3885    3886    3874    3878    3879    3880    3882
    3883    3884    3885    3886    3887    3879    3880    3876    3877    3881
    3881    3881    3879    3882    3880    3882    3883    3884    3885    3886
    3888    3882    3883    3884    3885    3887    3888       0    3883    3885
    3886    3887    3888    3884    3885    3886    3887    3888    3885    3887
    3886    3887    3888    3888    3888       0    3890    3891    3892    3893
    3894    3895    3896    3897    3898    3899    3900    3901    3902    3903
    3904    3891    3892    3893    3894    3895    3896    3897    3898    3899
    3900    3905    3906    3907    3892    3893    3894    3895    3896    3897
    3898    3900    3901    3902    3903    3907    3908    3893    3894    3895
    3896    3897    3898    3903    3904    3908    3909    3910    3894    3895
    3899    3900    3901    3905    3906    3907    3911    3912    3913    3899
    3900    3896    3899    3900    3901    3902    3903    3907    3911    3913
    3897    3900    3901    3902    3903    3904    3908    3914    3915    3898
    3902    3903    3904    3908    3909    3910    3914    3915    3916    3903
    3904    3900    3905    3906    3907    3911    3912    3917    3901    3905
    3906    3907    3911    3913    3917    3907    3903    3908    3904    3908
    3909    3910    3914    3915    3918    3908    3909    3910    3915    3916
    3918    3919    3920    3906    3907    3911    3912    3913    3917    3911
    3912    3911    3912    3913    3917    3909    3914    3915    3916    3918
    3921    3922    3910    3914    3915    3916    3918    3919    3920    3921
    3922    3923    3915    3916    3912    3913    3917    3917    3917    3915
    3918    3916    3918    3919    3920    3921    3922    3924    3918    3919
    3920    3921    3923    3924       0    3919    3921    3922    3923    3924
    3920    3921    3922    3923    3924    3921    3923    3922    3923    3924
    3924    3924       0    3926    3927    3928    3929    3930    3931    3932
    3933    3934    3935    3936    3937    3938    3939    3940    3927    3928
    3929    3930    3931    3932    3933    3934    3935    3936    3941    3942
    3943    3928    3929    3930    3931    3932    3933    3934    3936    3937
    3938    3939    3943    3944    3929    3930    3931    3932    3933    3934
    3939    3940    3944    3945    3946    3930    3931    3935    3936    3937
    3941    3942    3943    3947    3948    3949    3935    3936    3932    3935
    3936    3937    3938    3939    3943    3947    3949    3933    3936    3937
    3938    3939    3940    3944    3950    3951    3934    3938    3939    3940
    3944    3945    3946    3950    3951    3952    3939    3940    3936    3941
    3942    3943    3947    3948    3953    3937    3941    3942    3943    3947
    3949    3953    3943    3939    3944    3940    3944    3945    3946    3950
    3951    3954    3944    3945    3946    3951    3952    3954    3955    3956
    3942    3943    3947    3948    3949    3953    3947    3948    3947    3948
    3949    3953    3945    3950    3951    3952    3954    3957    3958    3946
    3950    3951    3952    3954    3955    3956    3957    3958    3959    3951
    3952    3948    3949    3953    3953    3953    3951    3954    3952    3954
    3955    3956    3957    3958    3960    3954    3955    3956    3957    3959
    3960       0    3955    3957    3958    3959    3960    3956    3957    3958
    3959    3960    3957    3959    3958    3959    3960    3960    3960       0
    3962    3963    3964    3965    3966    3967    3968    3969    3970    3971
    3972    3973    3974    3975    3976    3963    3964    3965    3966    3967
    3968    3969    3970    3971    3972    3977    3978    3979    3964    3965
    3966    3967    3968    3969    3970    3972    3973    3974    3975    3979
    3980    3965    3966    3967    3968    3969    3970    3975    3976    3980
    3981    3982    3966    3967    3971    3972    3973    3977    3978    3979
    3983    3984    3985    3971    3972    3968    3971    3972    3973    3974
    3975    3979    3983    3985    3969    3972    3973    3974    3975    3976
    3980    3986    3987    3970    3974    3975    3976    3980    3981    3982
    3986    3987    3988    3975    3976    3972    3977    3978    3979    3983
    3984    3989    3973    3977    3978    3979    3983    3985    3989    3979
    3975    3980    3976    3980    3981    3982    3986    3987    3990    3980
    3981    3982    3987    3988    3990    3991    3992    3978    3979    3983
    3984    3985    3989    3983    3984    3983    3984    3985    3989    3981
    3986    3987    3988    3990    3993    3994    3982    3986    3987    3988
    3990    3991    3992    3993    3994    3995    3987    3988    3984    3985
    3989    3989    3989    3987    3990    3988    3990    3991    3992    3993
    3994    3996    3990    3991    3992    3993    3995    3996       0    3991
    3993    3994    3995    3996    3992    3993    3994    3995    3996    3993
    3995    3994    3995    3996    3996    3996       0    3998    3999    4000
    4001    4002    4003    4004    4005    4006    4007    4008    4009    4010
    4011    4012    3999    4000    4001    4002    4003    4004    4005    4006
    4007    4008    4013    4014    4015    4000    4001    4002    4003    4004
    4005    4006    4008    4009    4010    4011    4015    4016    4001    4002
    4003    4004    4005    4006    4011    4012    4016    4017    4018    4002
    4003    4007    4008    4009    4013    4014    4015    4019    4020    4021
    4007    4008    4004    4007    4008    4009    4010    4011    4015    4019
    4021    4005    4008    4009    4010    4011    4012    4016    4022    4023
    4006    4010    4011    4012    4016    4017    4018    4022    4023    4024
    4011    4012    4008    4013    4014    4015    4019    4020    4025    4009
    4013    4014    4015    4019    4021    4025    4015    4011    4016    4012
    4016    4017    4018    4022    4023    4026    4016    4017    4018    4023
    4024    4026    4027    4028    4014    4015    4019    4020    4021    4025
    4019    4020    4019    4020    4021    4025    4017    4022    4023    4024
    4026    4029    4030    4018    4022    4023    4024    4026    4027    4028
    4029    4030    4031    4023    4024    4020    4021    4025    4025    4025
    4023    4026    4024    4026    4027    4028    4029    4030    4032    4026
    4027    4028    4029    4031    4032       0    4027    4029    4030    4031
    4032    4028    4029    4030    4031    4032    4029    4031    4030    4031
    4032    4032    4032       0    4034    4035    4036    4037    4038    4039
    4040    4041    4042    4043    4044    4045    4046    4047    4048    4035
    4036    4037    4038    4039    4040    4041    4042    4043    4044    4049
    4050    4051    4036    4037    4038    4039    4040    4041    4042    4044
    4045    4046    4047    4051    4052    4037    4038    4039    4040    4041
    4042    4047    4048    4052    4053    4054    4038    4039    4043    4044
    4045    4049    4050    4051    4055    4056    4057    4043    4044    4040
    4043    4044    4045    4046    4047    4051    4055    4057    4041    4044
    4045    4046    4047    4048    4052    4058    4059    4042    4046    4047
    4048    4052    4053    4054    4058    4059    4060    4047    4048    4044
    4049    4050    4051    4055    4056    4061    4045    4049    4050    4051
    4055    4057    4061    4051    4047    4052    4048    4052    4053    4054
    4058    4059    4062    4052    4053    4054    4059    4060    4062    4063
    4064    4050    4051    4055    4056    4057    4061    4055    4056    4055
    4056    4057    4061    4053    4058    4059    4060    4062    4065    4066
    4054    4058    4059    4060    4062    4063    4064    4065    4066    4067
    4059    4060    4056    4057    4061    4061    4061    4059    4062    4060
    4062    4063    4064    4065    4066    4068    4062    4063    4064    4065
    4067    4068       0    4063    4065    4066    4067    4068    4064    4065
    4066    4067    4068    4065    4067    4066    4067    4068    4068    4068
       0    4070    4071    4072    4073    4074    4075    4076    4077    4078
    4079    4080    4081    4082    4083    4084    4071    4072    4073    4074
    4075    4076    4077    4078    4079    4080    4085    4086    4087    4072
    4073    4074    4075    4076    4077    4078    4080    4081    4082    4083
    4087    4088    4073    4074    4075    4076    4077    4078    4083    4084
    4088    4089    4090    4074    4075    4079    4080    4081    4085    4086
    4087    4091    4092    4093    4079    4080    4076    4079    4080    4081
    4082    4083    4087    4091    4093    4077    4080    4081    4082    4083
    4084    4088    4094    4095    4078    4082    4083    4084    4088    4089
    4090    4094    4095    4096    4083    4084    4080    4085    4086    4087
    4091    4092    4097    4081    4085    4086    4087    4091    4093    4097
    4087    4083    4088    4084    4088    4089    4090    4094    4095    4098
    4088    4089    4090    4095    4096    4098    4099    4100    4086    4087
    4091    4092    4093    4097    4091    4092    4091    4092    4093    4097
    4089    4094    4095    4096    4098    4101    4102    4090    4094    4095
    4096    4098    4099    4100    4101    4102    4103    4095    4096    4092
    4093    4097    4097    4097    4095    4098    4096    4098    4099    4100
    4101    4102    4104    4098    4099    4100    4101    4103    4104       0
    4099    4101    4102    4103    4104    4100    4101    4102    4103    4104
    4101    4103    4102    4103    4104    4104    4104       0    4106    4107
    4108    4109    4110    4111    4112    4113    4114    4115    4116    4117
    4118    4119    4120    4107    4108    4109    4110    4111    4112    4113
    4114    4115    4116    4121    4122    4123    4108    4109    4110    4111
    4112    4113    4114    4116    4117    4118    4119    4123    4124    4109
    4110    4111    4112    4113    4114    4119    4120    4124    4125    4126
    4110    4111    4115    4116    4117    4121    4122    4123    4127    4128
    4129    4115    4116    4112    4115    4116    4117    4118    4119    4123
    4127    4129    4113    4116    4117    4118    4119    4120    4124    4130
    4131    4114    4118    4119    4120    4124    4125    4126    4130    4131
    4132    4119    4120    4116    4121    4122    4123    4127    4128    4133
    4117    4121    4122    4123    4127    4129    4133    4123    4119    4124
    4120    4124    4125    4126    4130    4131    4134    4124    4125    4126
    4131    4132    4134    4135    4136    4122    4123    4127    4128    4129
    4133    4127    4128    4127    4128    4129    4133    4125    4130    4131
    4132    4134    4137    4138    4126    4130    4131    4132    4134    4135
    4136    4137    4138    4139    4131    4132    4128    4129    4133    4133
    4133    4131    4134    4132    4134    4135    4136    4137    4138    4140
    4134    4135    4136    4137    4139    4140       0    4135    4137    4138
    4139    4140    4136    4137    4138    4139    4140    4137    4139    4138
    4139    4140    4140    4140       0    4142    4143    4144    4145    4146
    4147    4148    4149    4150    4151    4152    4153    4154    4155    4156
    4143    4144    4145    4146    4147    4148    4149    4150    4151    4152
    4157    4158    4159    4144    4145    4146    4147    4148    4149    4150
    4152    4153    4154    4155    4159    4160    4145    4146    4147    4148
    4149    4150    4155    4156    4160    4161    4162    4146    4147    4151
    4152    4153    4157    4158    4159    4163    4164    4165    4151    4152
    4148    4151    4152    4153    4154    4155    4159    4163    4165    4149
    4152    4153    4154    4155    4156    4160    4166    4167    4150    4154
    4155    4156    4160    4161    4162    4166    4167    4168    4155    4156
    4152    4157    4158    4159    4163    4164    4169    4153    4157    4158
    4159    4163    4165    4169    4159    4155    4160    4156    4160    4161
    4162    4166    4167    4170    4160    4161    4162    4167    4168    4170
    4171    4172    4158    4159    4163    4164    4165    4169    4163    4164
    4163    4164    4165    4169    4161    4166    4167    4168    4170    4173
    4174    4162    4166    4167    4168    4170    4171    4172    4173    4174
    4175    4167    4168    4164    4165    4169    4169    4169    4167    4170
    4168    4170    4171    4172    4173    4174    4176    4170    4171    4172
    4173    4175    4176       0    4171    4173    4174    4175    4176    4172
    4173    4174    4175    4176    4173    4175    4174    4175    4176    4176
    4176       0    4178    4179    4180    4181    4182    4183    4184    4185
    4186    4187    4188    4189    4190    4191    4192    4179    4180    4181
    4182    4183    4184    4185    4186    4187    4188    4193    4194    4195
    4180    4181    4182    4183    4184    4185    4186    4188    4189    4190
    4191    4195    4196    4181    4182    4183    4184    4185    4186    4191
    4192    4196    4197    4198    4182    4183    4187    4188    4189    4193
    4194    4195    4199    4200    4201    4187    4188    4184    4187    4188
    4189    4190    4191    4195    4199    4201    4185    4188    4189    4190
    4191    4192    4196    4202    4203    4186    4190    4191    4192    4196
    4197    4198    4202    4203    4204    4191    4192    4188    4193    4194
    4195    4199    4200    4205    4189    4193    4194    4195    4199    4201
    4205    4195    4191    4196    4192    4196    4197    4198    4202    4203
    4206    4196    4197    4198    4203    4204    4206    4207    4208    4194
    4195    4199    4200    4201    4205    4199    4200    4199    4200    4201
    4205    4197    4202    4203    4204    4206    4209    4210    4198    4202
    4203    4204    4206    4207    4208    4209    4210    4211    4203    4204
    4200    4201    4205    4205    4205    4203    4206    4204    4206    4207
    4208    4209    4210    4212    4206    4207    4208    4209    4211    4212
       0    4207    4209    4210    4211    4212    4208    4209    4210    4211
    4212    4209    4211    4210    4211    4212    4212    4212       0    4214
    4215    4216    4217    4218    4219    4220    4221    4222    4223    4224
    4225    4226    4227    4228    4215    4216    4217    4218    4219    4220
    4221    4222    4223    4224    4229    4230    4231    4216    4217    4218
    4219    4220    4221    4222    4224    4225    4226    4227    4231    4232
    4217    4218    4219    4220    4221    4222    4227    4228    4232    4233
    4234    4218    4219    4223    4224    4225    4229    4230    4231    4235
    4236    4237    4223    4224    4220    4223    4224    4225    4226    4227
    4231    4235    4237    4221    4224    4225    4226    4227    4228    4232
    4238    4239    4222    4226    4227    4228    4232    4233    4234    4238
    4239    4240    4227    4228    4224    4229    4230    4231    4235    4236
    4241    4225    4229    4230    4231    4235    4237    4241    4231    4227
    4232    4228    4232    4233    4234    4238    4239    4242    4232    4233
    4234    4239    4240    4242    4243    4244    4230    4231    4235    4236
    4237    4241    4235    4236    4235    4236    4237    4241    4233    4238
    4239    4240    4242    4245    4246    4234    4238    4239    4240    4242
    4243    4244    4245    4246    4247    4239    4240    4236    4237    4241
    4241    4241    4239    4242    4240    4242    4243    4244    4245    4246
    4248    4242    4243    4244    4245    4247    4248       0    4243    4245
    4246    4247    4248    4244    4245    4246    4247    4248    4245    4247
    4246    4247    4248    4248    4248       0    4250    4251    4252    4253
    4254    4255    4256    4257    4258    4259    4260    4261    4262    4263
    4264    4251    4252    4253    4254    4255    4256    4257    4258    4259
    4260    4265    4266    4267    4252    4253    4254    4255    4256    4257
    4258    4260    4261    4262    4263    4267    4268    4253    4254    4255
    4256    4257    4258    4263    4264    4268    4269    4270    4254    4255
    4259    4260    4261    4265    4266    4267    4271    4272    4273    4259
    4260    4256    4259    4260    4261    4262    4263    4267    4271    4273
    4257    4260    4261    4262    4263    4264    4268    4274    4275    4258
    4262    4263    4264    4268    4269    4270    4274    4275    4276    4263
    4264    4260    4265    4266    4267    4271    4272    4277    4261    4265
    4266    4267    4271    4273    4277    4267    4263    4268    4264    4268
    4269    4270    4274    4275    4278    4268    4269    4270    4275    4276
    4278    4279    4280    4266    4267    4271    4272    4273    4277    4271
    4272    4271    4272    4273    4277    4269    4274    4275    4276    4278
    4281    4282    4270    4274    4275    4276    4278    4279    4280    4281
    4282    4283    4275    4276    4272    4273    4277    4277    4277    4275
    4278    4276    4278    4279    4280    4281    4282    4284    4278    4279
    4280    4281    4283    4284       0    4279    4281    4282    4283    4284
    4280    4281    4282    4283    4284    4281    4283    4282    4283    4284
    4284    4284       0    4286    4287    4288    4289    4290    4291    4292
    4293    4294    4295    4296    4297    4298    4299    4300    4287    4288
    4289    4290    4291    4292    4293    4294    4295    4296    4301    4302
    4303    4288    4289    4290    4291    4292    4293    4294    4296    4297
    4298    4299    4303    4304    4289    4290    4291    4292    4293    4294
    4299    4300    4304    4305    4306    4290    4291    4295    4296    4297
    4301    4302    4303    4307    4308    4309    4295    4296    4292    4295
    4296    4297    4298    4299    4303    4307    4309    4293    4296    4297
    4298    4299    4300    4304    4310    4311    4294    4298    4299    4300
    4304    4305    4306    4310    4311    4312    4299    4300    4296    4301
    4302    4303    4307    4308    4313    4297    4301    4302    4303    4307
    4309    4313    4303    4299    4304    4300    4304    4305    4306    4310
    4311    4314    4304    4305    4306    4311    4312    4314    4315    4316
    4302    4303    4307    4308    4309    4313    4307    4308    4307    4308
    4309    4313    4305    4310    4311    4312    4314    4317    4318    4306
    4310    4311    4312    4314    4315    4316    4317    4318    4319    4311
    4312    4308    4309    4313    4313    4313    4311    4314    4312    4314
    4315    4316    4317    4318    4320    4314    4315    4316    4317    4319
    4320       0    4315    4317    4318    4319    4320    4316    4317    4318
    4319    4320    4317    4319    4318    4319    4320    4320    4320       0
    4322    4323    4324    4325    4326    4327    4328    4329    4330    4331
    4332    4333    4334    4335    4336    4323    4324    4325    4326    4327
    4328    4329    4330    4331    4332    4337    4338    4339    4324    4325
    4326    4327    4328    4329    4330    4332    4333    4334    4335    4339
    4340    4325    4326    4327    4328    4329    4330    4335    4336    4340
    4341    4342    4326    4327    4331    4332    4333    4337    4338    4339
    4343    4344    4345    4331    4332    4328    4331    4332    4333    4334
    4335    4339    4343    4345    4329    4332    4333    4334    4335    4336
    4340    4346    4347    4330    4334    4335    4336    4340    4341    4342
    4346    4347    4348    4335    4336    4332    4337    4338    4339    4343
    4344    4349    4333    4337    4338    4339    4343    4345    4349    4339
    4335    4340    4336    4340    4341    4342    4346    4347    4350    4340
    4341    4342    4347    4348    4350    4351    4352    4338    4339    4343
    4344    4345    4349    4343    4344    4343    4344    4345    4349    4341
    4346    4347    4348    4350    4353    4354    4342    4346    4347    4348
    4350    4351    4352    4353    4354    4355    4347    4348    4344    4345
    4349    4349    4349    4347    4350    4348    4350    4351    4352    4353
    4354    4356    4350    4351    4352    4353    4355    4356       0    4351
    4353    4354    4355    4356    4352    4353    4354    4355    4356    4353
    4355    4354    4355    4356    4356    4356       0    4358    4359    4360
    4361    4362    4363    4364    4365    4366    4367    4368    4369    4370
    4371    4372    4359    4360    4361    4362    4363    4364    4365    4366
    4367    4368    4373    4374    4375    4360    4361    4362    4363    4364
    4365    4366    4368    4369    4370    4371    4375    4376    4361    4362
    4363    4364    4365    4366    4371    4372    4376    4377    4378    4362
    4363    4367    4368    4369    4373    4374    4375    4379    4380    4381
    4367    4368    4364    4367    4368    4369    4370    4371    4375    4379
    4381    4365    4368    4369    4370    4371    4372    4376    4382    4383
    4366    4370    4371    4372    4376    4377    4378    4382    4383    4384
    4371    4372    4368    4373    4374    4375    4379    4380    4385    4369
    4373    4374    4375    4379    4381    4385    4375    4371    4376    4372
    4376    4377    4378    4382    4383    4386    4376    4377    4378    4383
    4384    4386    4387    4388    4374    4375    4379    4380    4381    4385
    4379    4380    4379    4380    4381    4385    4377    4382    4383    4384
    4386    4389    4390    4378    4382    4383    4384    4386    4387    4388
    4389    4390    4391    4383    4384    4380    4381    4385    4385    4385
    4383    4386    4384    4386    4387    4388    4389    4390    4392    4386
    4387    4388    4389    4391    4392       0    4387    4389    4390    4391
    4392    4388    4389    4390    4391    4392    4389    4391    4390    4391
    4392    4392    4392       0    4394    4395    4396    4397    4398    4399
    4400    4401    4402    4403    4404    4405    4406    4407    4408    4395
    4396    4397    4398    4399    4400    4401    4402    4403    4404    4409
    4410    4411    4396    4397    4398    4399    4400    4401    4402    4404
    4405    4406    4407    4411    4412    4397    4398    4399    4400    4401
    4402    4407    4408    4412    4413    4414    4398    4399    4403    4404
    4405    4409    4410    4411    4415    4416    4417    4403    4404    4400
    4403    4404    4405    4406    4407    4411    4415    4417    4401    4404
    4405    4406    4407    4408    4412    4418    4419    4402    4406    4407
    4408    4412    4413    4414    4418    4419    4420    4407    4408    4404
    4409    4410    4411    4415    4416    4421    4405    4409    4410    4411
    4415    4417    4421    4411    4407    4412    4408    4412    4413    4414
    4418    4419    4422    4412    4413    4414    4419    4420    4422    4423
    4424    4410    4411    4415    4416    4417    4421    4415    4416    4415
    4416    4417    4421    4413    4418    4419    4420    4422    4425    4426
    4414    4418    4419    4420    4422    4423    4424    4425    4426    4427
    4419    4420    4416    4417    4421    4421    4421    4419    4422    4420
    4422    4423    4424    4425    4426    4428    4422    4423    4424    4425
    4427    4428       0    4423    4425    4426    4427    4428    4424    4425
    4426    4427    4428    4425    4427    4426    4427    4428    4428    4428
       0    4430    4431    4432    4433    4434    4435    4436    4437    4438
    4439    4440    4441    4442    4443    4444    4431    4432    4433    4434
    4435    4436    4437    4438    4439    4440    4445    4446    4447    4432
    4433    4434    4435    4436    4437    4438    4440    4441    4442    4443
    4447    4448    4433    4434    4435    4436    4437    4438    4443    4444
    4448    4449    4450    4434    4435    4439    4440    4441    4445    4446
    4447    4451    4452    4453    4439    4440    4436    4439    4440    4441
    4442    4443    4447    4451    4453    4437    4440    4441    4442    4443
    4444    4448    4454    4455    4438    4442    4443    4444    4448    4449
    4450    4454    4455    4456    4443    4444    4440    4445    4446    4447
    4451    4452    4457    4441    4445    4446    4447    4451    4453    4457
    4447    4443    4448    4444    4448    4449    4450    4454    4455    4458
    4448    4449    4450    4455    4456    4458    4459    4460    4446    4447
    4451    4452    4453    4457    4451    4452    4451    4452    4453    4457
    4449    4454    4455    4456    4458    4461    4462    4450    4454    4455
    4456    4458    4459    4460    4461    4462    4463    4455    4456    4452
    4453    4457    4457    4457    4455    4458    4456    4458    4459    4460
    4461    4462    4464    4458    4459    4460    4461    4463    4464       0
    4459    4461    4462    4463    4464    4460    4461    4462    4463    4464
    4461    4463    4462    4463    4464    4464    4464       0    4466    4467
    4468    4469    4470    4471    4472    4473    4474    4475    4476    4477
    4478    4479    4480    4467    4468    4469    4470    4471    4472    4473
    4474    4475    4476    4481    4482    4483    4468    4469    4470    4471
    4472    4473    4474    4476    4477    4478    4479    4483    4484    4469
    4470    4471    4472    4473    4474    4479    4480    4484    4485    4486
    4470    4471    4475    4476    4477    4481    4482    4483    4487    4488
    4489    4475    4476    4472    4475    4476    4477    4478    4479    4483
    4487    4489    4473    4476    4477    4478    4479    4480    4484    4490
    4491    4474    4478    4479    4480    4484    4485    4486    4490    4491
    4492    4479    4480    4476    4481    4482    4483    4487    4488    4493
    4477    4481    4482    4483    4487    4489    4493    4483    4479    4484
    4480    4484    4485    4486    4490    4491    4494    4484    4485    4486
    4491    4492    4494    4495    4496    4482    4483    4487    4488    4489
    4493    4487    4488    4487    4488    4489    4493    4485    4490    4491
    4492    4494    4497    4498    4486    4490    4491    4492    4494    4495
    4496    4497    4498    4499    4491    4492    4488    4489    4493    4493
    4493    4491    4494    4492    4494    4495    4496    4497    4498    4500
    4494    4495    4496    4497    4499    4500       0    4495    4497    4498
    4499    4500    4496    4497    4498    4499    4500    4497    4499    4498
    4499    4500    4500    4500       0    4502    4503    4504    4505    4506
    4507    4508    4509    4510    4511    4512    4513    4514    4515    4516
    4503    4504    4505    4506    4507    4508    4509    4510    4511    4512
    4517    4518    4519    4504    4505    4506    4507    4508    4509    4510
    4512    4513    4514    4515    4519    4520    4505    4506    4507    4508
    4509    4510    4515    4516    4520    4521    4522    4506    4507    4511
    4512    4513    4517    4518    4519    4523    4524    4525    4511    4512
    4508    4511    4512    4513    4514    4515    4519    4523    4525    4509
    4512    4513    4514    4515    4516    4520    4526    4527    4510    4514
    4515    4516    4520    4521    4522    4526    4527    4528    4515    4516
    4512    4517    4518    4519    4523    4524    4529    4513    4517    4518
    4519    4523    4525    4529    4519    4515    4520    4516    4520    4521
    4522    4526    4527    4530    4520    4521    4522    4527    4528    4530
    4531    4532    4518    4519    4523    4524    4525    4529    4523    4524
    4523    4524    4525    4529    4521    4526    4527    4528    4530    4533
    4534    4522    4526    4527    4528    4530    4531    4532    4533    4534
    4535    4527    4528    4524    4525    4529    4529    4529    4527    4530
    4528    4530    4531    4532    4533    4534    4536    4530    4531    4532
    4533    4535    4536       0    4531    4533    4534    4535    4536    4532
    4533    4534    4535    4536    4533    4535    4534    4535    4536    4536
    4536       0    4538    4539    4540    4541    4542    4543    4544    4545
    4546    4547    4548    4549    4550    4551    4552    4539    4540    4541
    4542    4543    4544    4545    4546    4547    4548    4553    4554    4555
    4540    4541    4542    4543    4544    4545    4546    4548    4549    4550
    4551    4555    4556    4541    4542    4543    4544    4545    4546    4551
    4552    4556    4557    4558    4542    4543    4547    4548    4549    4553
    4554    4555    4559    4560    4561    4547    4548    4544    4547    4548
    4549    4550    4551    4555    4559    4561    4545    4548    4549    4550
    4551    4552    4556    4562    4563    4546    4550    4551    4552    4556
    4557    4558    4562    4563    4564    4551    4552    4548    4553    4554
    4555    4559    4560    4565    4549    4553    4554    4555    4559    4561
    4565    4555    4551    4556    4552    4556    4557    4558    4562    4563
    4566    4556    4557    4558    4563    4564    4566    4567    4568    4554
    4555    4559    4560    4561    4565    4559    4560    4559    4560    4561
    4565    4557    4562    4563    4564    4566    4569    4570    4558    4562
    4563    4564    4566    4567    4568    4569    4570    4571    4563    4564
    4560    4561    4565    4565    4565    4563    4566    4564    4566    4567
    4568    4569    4570    4572    4566    4567    4568    4569    4571    4572
       0    4567    4569    4570    4571    4572    4568    4569    4570    4571
    4572    4569    4571    4570    4571    4572    4572    4572       0    4574
    4575    4576    4577    4578    4579    4580    4581    4582    4583    4584
    4585    4586    4587    4588    4575    4576    4577    4578    4579    4580
    4581    4582    4583    4584    4589    4590    4591    4576    4577    4578
    4579    4580    4581    4582    4584    4585    4586    4587    4591    4592
    4577    4578    4579    4580    4581    4582    4587    4588    4592    4593
    4594    4578    4579    4583    4584    4585    4589    4590    4591    4595
    4596    4597    4583    4584    4580    4583    4584    4585    4586    4587
    4591    4595    4597    4581    4584    4585    4586    4587    4588    4592
    4598    4599    4582    4586    4587    4588    4592    4593    4594    4598
    4599    4600    4587    4588    4584    4589    4590    4591    4595    4596
    4601    4585    4589    4590    4591    4595    4597    4601    4591    4587
    4592    4588    4592    4593    4594    4598    4599    4602    4592    4593
    4594    4599    4600    4602    4603    4604    4590    4591    4595    4596
    4597    4601    4595    4596    4595    4596    4597    4601    4593    4598
    4599    4600    4602    4605    4606    4594    4598    4599    4600    4602
    4603    4604    4605    4606    4607    4599    4600    4596    4597    4601
    4601    4601    4599    4602    4600    4602    4603    4604    4605    4606
    4608    4602    4603    4604    4605    4607    4608       0    4603    4605
    4606    4607    4608    4604    4605    4606    4607    4608    4605    4607
    4606    4607    4608    4608    4608       0    4610    4611    4612    4613
    4614    4615    4616    4617    4618    4619    4620    4621    4622    4623
    4624    4611    4612    4613    4614    4615    4616    4617    4618    4619
    4620    4625    4626    4627    4612    4613    4614    4615    4616    4617
    4618    4620    4621    4622    4623    4627    4628    4613    4614    4615
    4616    4617    4618    4623    4624    4628    4629    4630    4614    4615
    4619    4620    4621    4625    4626    4627    4631    4632    4633    4619
    4620    4616    4619    4620    4621    4622    4623    4627    4631    4633
    4617    4620    4621    4622    4623    4624    4628    4634    4635    4618
    4622    4623    4624    4628    4629    4630    4634    4635    4636    4623
    4624    4620    4625    4626    4627    4631    4632    4637    4621    4625
    4626    4627    4631    4633    4637    4627    4623    4628    4624    4628
    4629    4630    4634    4635    4638    4628    4629    4630    4635    4636
    4638    4639    4640    4626    4627    4631    4632    4633    4637    4631
    4632    4631    4632    4633    4637    4629    4634    4635    4636    4638
    4641    4642    4630    4634    4635    4636    4638    4639    4640    4641
    4642    4643    4635    4636    4632    4633    4637    4637    4637    4635
    4638    4636    4638    4639    4640    4641    4642    4644    4638    4639
    4640    4641    4643    4644       0    4639    4641    4642    4643    4644
    4640    4641    4642    4643    4644    4641    4643    4642    4643    4644
    4644    4644       0    4646    4647    4648    4649    4650    4651    4652
    4653    4654    4655    4656    4657    4658    4659    4660    4647    4648
    4649    4650    4651    4652    4653    4654    4655    4656    4661    4662
    4663    4648    4649    4650    4651    4652    4653    4654    4656    4657
    4658    4659    4663    4664    4649    4650    4651    4652    4653    4654
    4659    4660    4664    4665    4666    4650    4651    4655    4656    4657
    4661    4662    4663    4667    4668    4669    4655    4656    4652    4655
    4656    4657    4658    4659    4663    4667    4669    4653    4656    4657
    4658    4659    4660    4664    4670    4671    4654    4658    4659    4660
    4664    4665    4666    4670    4671    4672    4659    4660    4656    4661
    4662    4663    4667    4668    4673    4657    4661    4662    4663    4667
    4669    4673    4663    4659    4664    4660    4664    4665    4666    4670
    4671    4674    4664    4665    4666    4671    4672    4674    4675    4676
    4662    4663    4667    4668    4669    4673    4667    4668    4667    4668
    4669    4673    4665    4670    4671    4672    4674    4677    4678    4666
    4670    4671    4672    4674    4675    4676    4677    4678    4679    4671
    4672    4668    4669    4673    4673    4673    4671    4674    4672    4674
    4675    4676    4677    4678    4680    4674    4675    4676    4677    4679
    4680       0    4675    4677    4678    4679    4680    4676    4677    4678
    4679    4680    4677    4679    4678    4679    4680    4680    4680       0
    4682    4683    4684    4685    4686    4687    4688    4689    4690    4691
    4692    4693    4694    4695    4696    4683    4684    4685    4686    4687
    4688    4689    4690    4691    4692    4697    4698    4699    4684    4685
    4686    4687    4688    4689    4690    4692    4693    4694    4695    4699
    4700    4685    4686    4687    4688    4689    4690    4695    4696    4700
    4701    4702    4686    4687    4691    4692    4693    4697    4698    4699
    4703    4704    4705    4691    4692    4688    4691    4692    4693    4694
    4695    4699    4703    4705    4689    4692    4693    4694    4695    4696
    4700    4706    4707    4690    4694    4695    4696    4700    4701    4702
    4706    4707    4708    4695    4696    4692    4697    4698    4699    4703
    4704    4709    4693    4697    4698    4699    4703    4705    4709    4699
    4695    4700    4696    4700    4701    4702    4706    4707    4710    4700
    4701    4702    4707    4708    4710    4711    4712    4698    4699    4703
    4704    4705    4709    4703    4704    4703    4704    4705    4709    4701
    4706    4707    4708    4710    4713    4714    4702    4706    4707    4708
    4710    4711    4712    4713    4714    4715    4707    4708    4704    4705
    4709    4709    4709    4707    4710    4708    4710    4711    4712    4713
    4714    4716    4710    4711    4712    4713    4715    4716       0    4711
    4713    4714    4715    4716    4712    4713    4714    4715    4716    4713
    4715    4714    4715    4716    4716    4716       0    4718    4719    4720
    4721    4722    4723    4724    4725    4726    4727    4728    4729    4730
    4731    4732    4719    4720    4721    4722    4723    4724    4725    4726
    4727    4728    4733    4734    4735    4720    4721    4722    4723    4724
    4725    4726    4728    4729    4730    4731    4735    4736    4721    4722
    4723    4724    4725    4726    4731    4732    4736    4737    4738    4722
    4723    4727    4728    4729    4733    4734    4735    4739    4740    4741
    4727    4728    4724    4727    4728    4729    4730    4731    4735    4739
    4741    4725    4728    4729    4730    4731    4732    4736    4742    4743
    4726    4730    4731    4732    4736    4737    4738    4742    4743    4744
    4731    4732    4728    4733    4734    4735    4739    4740    4745    4729
    4733    4734    4735    4739    4741    4745    4735    4731    4736    4732
    4736    4737    4738    4742    4743    4746    4736    4737    4738    4743
    4744    4746    4747    4748    4734    4735    4739    4740    4741    4745
    4739    4740    4739    4740    4741    4745    4737    4742    4743    4744
    4746    4749    4750    4738    4742    4743    4744    4746    4747    4748
    4749    4750    4751    4743    4744    4740    4741    4745    4745    4745
    4743    4746    4744    4746    4747    4748    4749    4750    4752    4746
    4747    4748    4749    4751    4752       0    4747    4749    4750    4751
    4752    4748    4749    4750    4751    4752    4749    4751    4750    4751
    4752    4752    4752       0    4754    4755    4756    4757    4758    4759
    4760    4761    4762    4763    4764    4765    4766    4767    4768    4755
    4756    4757    4758    4759    4760    4761    4762    4763    4764    4769
    4770    4771    4756    4757    4758    4759    4760    4761    4762    4764
    4765    4766    4767    4771    4772    4757    4758    4759    4760    4761
    4762    4767    4768    4772    4773    4774    4758    4759    4763    4764
    4765    4769    4770    4771    4775    4776    4777    4763    4764    4760
    4763    4764    4765    4766    4767    4771    4775    4777    4761    4764
    4765    4766    4767    4768    4772    4778    4779    4762    4766    4767
    4768    4772    4773    4774    4778    4779    4780    4767    4768    4764
    4769    4770    4771    4775    4776    4781    4765    4769    4770    4771
    4775    4777    4781    4771    4767    4772    4768    4772    4773    4774
    4778    4779    4782    4772    4773    4774    4779    4780    4782    4783
    4784    4770    4771    4775    4776    4777    4781    4775    4776    4775
    4776    4777    4781    4773    4778    4779    4780    4782    4785    4786
    4774    4778    4779    4780    4782    4783    4784    4785    4786    4787
    4779    4780    4776    4777    4781    4781    4781    4779    4782    4780
    4782    4783    4784    4785    4786    4788    4782    4783    4784    4785
    4787    4788       0    4783    4785    4786    4787    4788    4784    4785
    4786    4787    4788    4785    4787    4786    4787    4788    4788    4788
       0    4790    4791    4792    4793    4794    4795    4796    4797    4798
    4799    4800    4801    4802    4803    4804    4791    4792    4793    4794
    4795    4796    4797    4798    4799    4800    4805    4806    4807    4792
    4793    4794    4795    4796    4797    4798    4800    4801    4802    4803
    4807    4808    4793    4794    4795    4796    4797    4798    4803    4804
    4808    4809    4810    4794    4795    4799    4800    4801    4805    4806
    4807    4811    4812    4813    4799    4800    4796    4799    4800    4801
    4802    4803    4807    4811    4813    4797    4800    4801    4802    4803
    4804    4808    4814    4815    4798    4802    4803    4804    4808    4809
    4810    4814    4815    4816    4803    4804    4800    4805    4806    4807
    4811    4812    4817    4801    4805    4806    4807    4811    4813    4817
    4807    4803    4808    4804    4808    4809    4810    4814    4815    4818
    4808    4809    4810    4815    4816    4818    4819    4820    4806    4807
    4811    4812    4813    4817    4811    4812    4811    4812    4813    4817
    4809    4814    4815    4816    4818    4821    4822    4810    4814    4815
    4816    4818    4819    4820    4821    4822    4823    4815    4816    4812
    4813    4817    4817    4817    4815    4818    4816    4818    4819    4820
    4821    4822    4824    4818    4819    4820    4821    4823    4824       0
    4819    4821    4822    4823    4824    4820    4821    4822    4823    4824
    4821    4823    4822    4823    4824    4824    4824       0    4826    4827
    4828    4829    4830    4831    4832    4833    4834    4835    4836    4837
    4838    4839    4840    4827    4828    4829    4830    4831    4832    4833
    4834    4835    4836    4841    4842    4843    4828    4829    4830    4831
    4832    4833    4834    4836    4837    4838    4839    4843    4844    4829
    4830    4831    4832    4833    4834    4839    4840    4844    4845    4846
    4830    4831    4835    4836    4837    4841    4842    4843    4847    4848
    4849    4835    4836    4832    4835    4836    4837    4838    4839    4843
    4847    4849    4833    4836    4837    4838    4839    4840    4844    4850
    4851    4834    4838    4839    4840    4844    4845    4846    4850    4851
    4852    4839    4840    4836    4841    4842    4843    4847    4848    4853
    4837    4841    4842    4843    4847    4849    4853    4843    4839    4844
    4840    4844    4845    4846    4850    4851    4854    4844    4845    4846
    4851    4852    4854    4855    4856    4842    4843    4847    4848    4849
    4853    4847    4848    4847    4848    4849    4853    4845    4850    4851
    4852    4854    4857    4858    4846    4850    4851    4852    4854    4855
    4856    4857    4858    4859    4851    4852    4848    4849    4853    4853
    4853    4851    4854    4852    4854    4855    4856    4857    4858    4860
    4854    4855    4856    4857    4859    4860       0    4855    4857    4858
    4859    4860    4856    4857    4858    4859    4860    4857    4859    4858
    4859    4860    4860    4860       0    4862    4863    4864    4865    4866
    4867    4868    4869    4870    4871    4872    4873    4874    4875    4876
    4863    4864    4865    4866    4867    4868    4869    4870    4871    4872
    4877    4878    4879    4864    4865    4866    4867    4868    4869    4870
    4872    4873    4874    4875    4879    4880    4865    4866    4867    4868
    4869    4870    4875    4876    4880    4881    4882    4866    4867    4871
    4872    4873    4877    4878    4879    4883    4884    4885    4871    4872
    4868    4871    4872    4873    4874    4875    4879    4883    4885    4869
    4872    4873    4874    4875    4876    4880    4886    4887    4870    4874
    4875    4876    4880    4881    4882    4886    4887    4888    4875    4876
    4872    4877    4878    4879    4883    4884    4889    4873    4877    4878
    4879    4883    4885    4889    4879    4875    4880    4876    4880    4881
    4882    4886    4887    4890    4880    4881    4882    4887    4888    4890
    4891    4892    4878    4879    4883    4884    4885    4889    4883    4884
    4883    4884    4885    4889    4881    4886    4887    4888    4890    4893
    4894    4882    4886    4887    4888    4890    4891    4892    4893    4894
    4895    4887    4888    4884    4885    4889    4889    4889    4887    4890
    4888    4890    4891    4892    4893    4894    4896    4890    4891    4892
    4893    4895    4896       0    4891    4893    4894    4895    4896    4892
    4893    4894    4895    4896    4893    4895    4894    4895    4896    4896
    4896       0    4898    4899    4900    4901    4902    4903    4904    4905
    4906    4907    4908    4909    4910    4911    4912    4899    4900    4901
    4902    4903    4904    4905    4906    4907    4908    4913    4914    4915
    4900    4901    4902    4903    4904    4905    4906    4908    4909    4910
    4911    4915    4916    4901    4902    4903    4904    4905    4906    4911
    4912    4916    4917    4918    4902    4903    4907    4908    4909    4913
    4914    4915    4919    4920    4921    4907    4908    4904    4907    4908
    4909    4910    4911    4915    4919    4921    4905    4908    4909    4910
    4911    4912    4916    4922    4923    4906    4910    4911    4912    4916
    4917    4918    4922    4923    4924    4911    4912    4908    4913    4914
    4915    4919    4920    4925    4909    4913    4914    4915    4919    4921
    4925    4915    4911    4916    4912    4916    4917    4918    4922    4923
    4926    4916    4917    4918    4923    4924    4926    4927    4928    4914
    4915    4919    4920    4921    4925    4919    4920    4919    4920    4921
    4925    4917    4922    4923    4924    4926    4929    4930    4918    4922
    4923    4924    4926    4927    4928    4929    4930    4931    4923    4924
    4920    4921    4925    4925    4925    4923    4926    4924    4926    4927
    4928    4929    4930    4932    4926    4927    4928    4929    4931    4932
       0    4927    4929    4930    4931    4932    4928    4929    4930    4931
    4932    4929    4931    4930    4931    4932    4932    4932       0    4934
    4935    4936    4937    4938    4939    4940    4941    4942    4943    4944
    4945    4946    4947    4948    4935    4936    4937    4938    4939    4940
    4941    4942    4943    4944    4949    4950    4951    4936    4937    4938
    4939    4940    4941    4942    4944    4945    4946    4947    4951    4952
    4937    4938    4939    4940    4941    4942    4947    4948    4952    4953
    4954    4938    4939    4943    4944    4945    4949    4950    4951    4955
    4956    4957    4943    4944    4940    4943    4944    4945    4946    4947
    4951    4955    4957    4941    4944    4945    4946    4947    4948    4952
    4958    4959    4942    4946    4947    4948    4952    4953    4954    4958
    4959    4960    4947    4948    4944    4949    4950    4951    4955    4956
    4961    4945    4949    4950    4951    4955    4957    4961    4951    4947
    4952    4948    4952    4953    4954    4958    4959    4962    4952    4953
    4954    4959    4960    4962    4963    4964    4950    4951    4955    4956
    4957    4961    4955    4956    4955    4956    4957    4961    4953    4958
    4959    4960    4962    4965    4966    4954    4958    4959    4960    4962
    4963    4964    4965    4966    4967    4959    4960    4956    4957    4961
    4961    4961    4959    4962    4960    4962    4963    4964    4965    4966
    4968    4962    4963    4964    4965    4967    4968       0    4963    4965
    4966    4967    4968    4964    4965    4966    4967    4968    4965    4967
    4966    4967    4968    4968    4968       0    4970    4971    4972    4973
    4974    4975    4976    4977    4978    4979    4980    4981    4982    4983
    4984    4971    4972    4973    4974    4975    4976    4977    4978    4979
    4980    4985    4986    4987    4972    4973    4974    4975    4976    4977
    4978    4980    4981    4982    4983    4987    4988    4973    4974    4975
    4976    4977    4978    4983    4984    4988    4989    4990    4974    4975
    4979    4980    4981    4985    4986    4987    4991    4992    4993    4979
    4980    4976    4979    4980    4981    4982    4983    4987    4991    4993
    4977    4980    4981    4982    4983    4984    4988    4994    4995    4978
    4982    4983    4984    4988    4989    4990    4994    4995    4996    4983
    4984    4980    4985    4986    4987    4991    4992    4997    4981    4985
    4986    4987    4991    4993    4997    4987    4983    4988    4984    4988
    4989    4990    4994    4995    4998    4988    4989    4990    4995    4996
    4998    4999    5000    4986    4987    4991    4992    4993    4997    4991
    4992    4991    4992    4993    4997    4989    4994    4995    4996    4998
    5001    5002    4990    4994    4995    4996    4998    4999    5000    5001
    5002    5003    4995    4996    4992    4993    4997    4997    4997    4995
    4998    4996    4998    4999    5000    5001    5002    5004    4998    4999
    5000    5001    5003    5004       0    4999    5001    5002    5003    5004
    5000    5001    5002    5003    5004    5001    5003    5002    5003    5004
    5004    5004       0    5006    5007    5008    5009    5010    5011    5012
    5013    5014    5015    5016    5017    5018    5019    5020    5007    5008
    5009    5010    5011    5012    5013    5014    5015    5016    5021    5022
    5023    5008    5009    5010    5011    5012    5013    5014    5016    5017
    5018    5019    5023    5024    5009    5010    5011    5012    5013    5014
    5019    5020    5024    5025    5026    5010    5011    5015    5016    5017
    5021    5022    5023    5027    5028    5029    5015    5016    5012    5015
    5016    5017    5018    5019    5023    5027    5029    5013    5016    5017
    5018    5019    5020    5024    5030    5031    5014    5018    5019    5020
    5024    5025    5026    5030    5031    5032    5019    5020    5016    5021
    5022    5023    5027    5028    5033    5017    5021    5022    5023    5027
    5029    5033    5023    5019    5024    5020    5024    5025    5026    5030
    5031    5034    5024    5025    5026    5031    5032    5034    5035    5036
    5022    5023    5027    5028    5029    5033    5027    5028    5027    5028
    5029    5033    5025    5030    5031    5032    5034    5037    5038    5026
    5030    5031    5032    5034    5035    5036    5037    5038    5039    5031
    5032    5028    5029    5033    5033    5033    5031    5034    5032    5034
    5035    5036    5037    5038    5040    5034    5035    5036    5037    5039
    5040       0    5035    5037    5038    5039    5040    5036    5037    5038
    5039    5040    5037    5039    5038    5039    5040    5040    5040       0
    5042    5043    5044    5045    5046    5047    5048    5049    5050    5051
    5052    5053    5054    5055    5056    5043    5044    5045    5046    5047
    5048    5049    5050    5051    5052    5057    5058    5059    5044    5045
    5046    5047    5048    5049    5050    5052    5053    5054    5055    5059
    5060    5045    5046    5047    5048    5049    5050    5055    5056    5060
    5061    5062    5046    5047    5051    5052    5053    5057    5058    5059
    5063    5064    5065    5051    5052    5048    5051    5052    5053    5054
    5055    5059    5063    5065    5049    5052    5053    5054    5055    5056
    5060    5066    5067    5050    5054    5055    5056    5060    5061    5062
    5066    5067    5068    5055    5056    5052    5057    5058    5059    5063
    5064    5069    5053    5057    5058    5059    5063    5065    5069    5059
    5055    5060    5056    5060    5061    5062    5066    5067    5070    5060
    5061    5062    5067    5068    5070    5071    5072    5058    5059    5063
    5064    5065    5069    5063    5064    5063    5064    5065    5069    5061
    5066    5067    5068    5070    5073    5074    5062    5066    5067    5068
    5070    5071    5072    5073    5074    5075    5067    5068    5064    5065
    5069    5069    5069    5067    5070    5068    5070    5071    5072    5073
    5074    5076    5070    5071    5072    5073    5075    5076       0    5071
    5073    5074    5075    5076    5072    5073    5074    5075    5076    5073
    5075    5074    5075    5076    5076    5076       0    5078    5079    5080
    5081    5082    5083    5084    5085    5086    5087    5088    5089    5090
    5091    5092    5079    5080    5081    5082    5083    5084    5085    5086
    5087    5088    5093    5094    5095    5080    5081    5082    5083    5084
    5085    5086    5088    5089    5090    5091    5095    5096    5081    5082
    5083    5084    5085    5086    5091    5092    5096    5097    5098    5082
    5083    5087    5088    5089    5093    5094    5095    5099    5100    5101
    5087    5088    5084    5087    5088    5089    5090    5091    5095    5099
    5101    5085    5088    5089    5090    5091    5092    5096    5102    5103
    5086    5090    5091    5092    5096    5097    5098    5102    5103    5104
    5091    5092    5088    5093    5094    5095    5099    5100    5105    5089
    5093    5094    5095    5099    5101    5105    5095    5091    5096    5092
    5096    5097    5098    5102    5103    5106    5096    5097    5098    5103
    5104    5106    5107    5108    5094    5095    5099    5100    5101    5105
    5099    5100    5099    5100    5101    5105    5097    5102    5103    5104
    5106    5109    5110    5098    5102    5103    5104    5106    5107    5108
    5109    5110    5111    5103    5104    5100    5101    5105    5105    5105
    5103    5106    5104    5106    5107    5108    5109    5110    5112    5106
    5107    5108    5109    5111    5112       0    5107    5109    5110    5111
    5112    5108    5109    5110    5111    5112    5109    5111    5110    5111
    5112    5112    5112       0    5114    5115    5116    5117    5118    5119
    5120    5121    5122    5123    5124    5125    5126    5127    5128    5115
    5116    5117    5118    5119    5120    5121    5122    5123    5124    5129
    5130    5131    5116    5117    5118    5119    5120    5121    5122    5124
    5125    5126    5127    5131    5132    5117    5118    5119    5120    5121
    5122    5127    5128    5132    5133    5134    5118    5119    5123    5124
    5125    5129    5130    5131    5135    5136    5137    5123    5124    5120
    5123    5124    5125    5126    5127    5131    5135    5137    5121    5124
    5125    5126    5127    5128    5132    5138    5139    5122    5126    5127
    5128    5132    5133    5134    5138    5139    5140    5127    5128    5124
    5129    5130    5131    5135    5136    5141    5125    5129    5130    5131
    5135    5137    5141    5131    5127    5132    5128    5132    5133    5134
    5138    5139    5142    5132    5133    5134    5139    5140    5142    5143
    5144    5130    5131    5135    5136    5137    5141    5135    5136    5135
    5136    5137    5141    5133    5138    5139    5140    5142    5145    5146
    5134    5138    5139    5140    5142    5143    5144    5145    5146    5147
    5139    5140    5136    5137    5141    5141    5141    5139    5142    5140
    5142    5143    5144    5145    5146    5148    5142    5143    5144    5145
    5147    5148       0    5143    5145    5146    5147    5148    5144    5145
    5146    5147    5148    5145    5147    5146    5147    5148    5148    5148
       0    5150    5151    5152    5153    5154    5155    5156    5157    5158
    5159    5160    5161    5162    5163    5164    5151    5152    5153    5154
    5155    5156    5157    5158    5159    5160    5165    5166    5167    5152
    5153    5154    5155    5156    5157    5158    5160    5161    5162    5163
    5167    5168    5153    5154    5155    5156    5157    5158    5163    5164
    5168    5169    5170    5154    5155    5159    5160    5161    5165    5166
    5167    5171    5172    5173    5159    5160    5156    5159    5160    5161
    5162    5163    5167    5171    5173    5157    5160    5161    5162    5163
    5164    5168    5174    5175    5158    5162    5163    5164    5168    5169
    5170    5174    5175    5176    5163    5164    5160    5165    5166    5167
    5171    5172    5177    5161    5165    5166    5167    5171    5173    5177
    5167    5163    5168    5164    5168    5169    5170    5174    5175    5178
    5168    5169    5170    5175    5176    5178    5179    5180    5166    5167
    5171    5172    5173    5177    5171    5172    5171    5172    5173    5177
    5169    5174    5175    5176    5178    5181    5182    5170    5174    5175
    5176    5178    5179    5180    5181    5182    5183    5175    5176    5172
    5173    5177    5177    5177    5175    5178    5176    5178    5179    5180
    5181    5182    5184    5178    5179    5180    5181    5183    5184       0
    5179    5181    5182    5183    5184    5180    5181    5182    5183    5184
    5181    5183    5182    5183    5184    5184    5184       0    5186    5187
    5188    5189    5190    5191    5192    5193    5194    5195    5196    5197
    5198    5199    5200    5187    5188    5189    5190    5191    5192    5193
    5194    5195    5196    5201    5202    5203    5188    5189    5190    5191
    5192    5193    5194    5196    5197    5198    5199    5203    5204    5189
    5190    5191    5192    5193    5194    5199    5200    5204    5205    5206
    5190    5191    5195    5196    5197    5201    5202    5203    5207    5208
    5209    5195    5196    5192    5195    5196    5197    5198    5199    5203
    5207    5209    5193    5196    5197    5198    5199    5200    5204    5210
    5211    5194    5198    5199    5200    5204    5205    5206    5210    5211
    5212    5199    5200    5196    5201    5202    5203    5207    5208    5213
    5197    5201    5202    5203    5207    5209    5213    5203    5199    5204
    5200    5204    5205    5206    5210    5211    5214    5204    5205    5206
    5211    5212    5214    5215    5216    5202    5203    5207    5208    5209
    5213    5207    5208    5207    5208    5209    5213    5205    5210    5211
    5212    5214    5217    5218    5206    5210    5211    5212    5214    5215
    5216    5217    5218    5219    5211    5212    5208    5209    5213    5213
    5213    5211    5214    5212    5214    5215    5216    5217    5218    5220
    5214    5215    5216    5217    5219    5220       0    5215    5217    5218
    5219    5220    5216    5217    5218    5219    5220    5217    5219    5218
    5219    5220    5220    5220       0    5222    5223    5224    5225    5226
    5227    5228    5229    5230    5231    5232    5233    5234    5235    5236
    5223    5224    5225    5226    5227    5228    5229    5230    5231    5232
    5237    5238    5239    5224    5225    5226    5227    5228    5229    5230
    5232    5233    5234    5235    5239    5240    5225    5226    5227    5228
    5229    5230    5235    5236    5240    5241    5242    5226    5227    5231
    5232    5233    5237    5238    5239    5243    5244    5245    5231    5232
    5228    5231    5232    5233    5234    5235    5239    5243    5245    5229
    5232    5233    5234    5235    5236    5240    5246    5247    5230    5234
    5235    5236    5240    5241    5242    5246    5247    5248    5235    5236
    5232    5237    5238    5239    5243    5244    5249    5233    5237    5238
    5239    5243    5245    5249    5239    5235    5240    5236    5240    5241
    5242    5246    5247    5250    5240    5241    5242    5247    5248    5250
    5251    5252    5238    5239    5243    5244    5245    5249    5243    5244
    5243    5244    5245    5249    5241    5246    5247    5248    5250    5253
    5254    5242    5246    5247    5248    5250    5251    5252    5253    5254
    5255    5247    5248    5244    5245    5249    5249    5249    5247    5250
    5248    5250    5251    5252    5253    5254    5256    5250    5251    5252
    5253    5255    5256       0    5251    5253    5254    5255    5256    5252
    5253    5254    5255    5256    5253    5255    5254    5255    5256    5256
    5256       0    5258    5259    5260    5261    5262    5263    5264    5265
    5266    5267    5268    5269    5270    5271    5272    5259    5260    5261
    5262    5263    5264    5265    5266    5267    5268    5273    5274    5275
    5260    5261    5262    5263    5264    5265    5266    5268    5269    5270
    5271    5275    5276    5261    5262    5263    5264    5265    5266    5271
    5272    5276    5277    5278    5262    5263    5267    5268    5269    5273
    5274    5275    5279    5280    5281    5267    5268    5264    5267    5268
    5269    5270    5271    5275    5279    5281    5265    5268    5269    5270
    5271    5272    5276    5282    5283    5266    5270    5271    5272    5276
    5277    5278    5282    5283    5284    5271    5272    5268    5273    5274
    5275    5279    5280    5285    5269    5273    5274    5275    5279    5281
    5285    5275    5271    5276    5272    5276    5277    5278    5282    5283
    5286    5276    5277    5278    5283    5284    5286    5287    5288    5274
    5275    5279    5280    5281    5285    5279    5280    5279    5280    5281
    5285    5277    5282    5283    5284    5286    5289    5290    5278    5282
    5283    5284    5286    5287    5288    5289    5290    5291    5283    5284
    5280    5281    5285    5285    5285    5283    5286    5284    5286    5287
    5288    5289    5290    5292    5286    5287    5288    5289    5291    5292
       0    5287    5289    5290    5291    5292    5288    5289    5290    5291
    5292    5289    5291    5290    5291    5292    5292    5292       0    5294
    5295    5296    5297    5298    5299    5300    5301    5302    5303    5304
    5305    5306    5307    5308    5295    5296    5297    5298    5299    5300
    5301    5302    5303    5304    5309    5310    5311    5296    5297    5298
    5299    5300    5301    5302    5304    5305    5306    5307    5311    5312
    5297    5298    5299    5300    5301    5302    5307    5308    5312    5313
    5314    5298    5299    5303    5304    5305    5309    5310    5311    5315
    5316    5317    5303    5304    5300    5303    5304    5305    5306    5307
    5311    5315    5317    5301    5304    5305    5306    5307    5308    5312
    5318    5319    5302    5306    5307    5308    5312    5313    5314    5318
    5319    5320    5307    5308    5304    5309    5310    5311    5315    5316
    5321    5305    5309    5310    5311    5315    5317    5321    5311    5307
    5312    5308    5312    5313    5314    5318    5319    5322    5312    5313
    5314    5319    5320    5322    5323    5324    5310    5311    5315    5316
    5317    5321    5315    5316    5315    5316    5317    5321    5313    5318
    5319    5320    5322    5325    5326    5314    5318    5319    5320    5322
    5323    5324    5325    5326    5327    5319    5320    5316    5317    5321
    5321    5321    5319    5322    5320    5322    5323    5324    5325    5326
    5328    5322    5323    5324    5325    5327    5328       0    5323    5325
    5326    5327    5328    5324    5325    5326    5327    5328    5325    5327
    5326    5327    5328    5328    5328       0    5330    5331    5332    5333
    5334    5335    5336    5337    5338    5339    5340    5341    5342    5343
    5344    5331    5332    5333    5334    5335    5336    5337    5338    5339
    5340    5345    5346    5347    5332    5333    5334    5335    5336    5337
    5338    5340    5341    5342    5343    5347    5348    5333    5334    5335
    5336    5337    5338    5343    5344    5348    5349    5350    5334    5335
    5339    5340    5341    5345    5346    5347    5351    5352    5353    5339
    5340    5336    5339    5340    5341    5342    5343    5347    5351    5353
    5337    5340    5341    5342    5343    5344    5348    5354    5355    5338
    5342    5343    5344    5348    5349    5350    5354    5355    5356    5343
    5344    5340    5345    5346    5347    5351    5352    5357    5341    5345
    5346    5347    5351    5353    5357    5347    5343    5348    5344    5348
    5349    5350    5354    5355    5358    5348    5349    5350    5355    5356
    5358    5359    5360    5346    5347    5351    5352    5353    5357    5351
    5352    5351    5352    5353    5357    5349    5354    5355    5356    5358
    5361    5362    5350    5354    5355    5356    5358    5359    5360    5361
    5362    5363    5355    5356    5352    5353    5357    5357    5357    5355
    5358    5356    5358    5359    5360    5361    5362    5364    5358    5359
    5360    5361    5363    5364       0    5359    5361    5362    5363    5364
    5360    5361    5362    5363    5364    5361    5363    5362    5363    5364
    5364    5364       0    5366    5367    5368    5369    5370    5371    5372
    5373    5374    5375    5376    5377    5378    5379    5380    5367    5368
    5369    5370    5371    5372    5373    5374    5375    5376    5381    5382
    5383    5368    5369    5370    5371    5372    5373    5374    5376    5377
    5378    5379    5383    5384    5369    5370    5371    5372    5373    5374
    5379    5380    5384    5385    5386    5370    5371    5375    5376    5377
    5381    5382    5383    5387    5388    5389    5375    5376    5372    5375
    5376    5377    5378    5379    5383    5387    5389    5373    5376    5377
    5378    5379    5380    5384    5390    5391    5374    5378    5379    5380
    5384    5385    5386    5390    5391    5392    5379    5380    5376    5381
    5382    5383    5387    5388    5393    5377    5381    5382    5383    5387
    5389    5393    5383    5379    5384    5380    5384    5385    5386    5390
    5391    5394    5384    5385    5386    5391    5392    5394    5395    5396
    5382    5383    5387    5388    5389    5393    5387    5388    5387    5388
    5389    5393    5385    5390    5391    5392    5394    5397    5398    5386
    5390    5391    5392    5394    5395    5396    5397    5398    5399    5391
    5392    5388    5389    5393    5393    5393    5391    5394    5392    5394
    5395    5396    5397    5398    5400    5394    5395    5396    5397    5399
    5400       0    5395    5397    5398    5399    5400    5396    5397    5398
    5399    5400    5397    5399    5398    5399    5400    5400    5400       0
    5402    5403    5404    5405    5406    5407    5408    5409    5410    5411
    5412    5413    5414    5415    5416    5403    5404    5405    5406    5407
    5408    5409    5410    5411    5412    5417    5418    5419    5404    5405
    5406    5407    5408    5409    5410    5412    5413    5414    5415    5419
    5420    5405    5406    5407    5408    5409    5410    5415    5416    5420
    5421    5422    5406    5407    5411    5412    5413    5417    5418    5419
    5423    5424    5425    5411    5412    5408    5411    5412    5413    5414
    5415    5419    5423    5425    5409    5412    5413    5414    5415    5416
    5420    5426    5427    5410    5414    5415    5416    5420    5421    5422
    5426    5427    5428    5415    5416    5412    5417    5418    5419    5423
    5424    5429    5413    5417    5418    5419    5423    5425    5429    5419
    5415    5420    5416    5420    5421    5422    5426    5427    5430    5420
    5421    5422    5427    5428    5430    5431    5432    5418    5419    5423
    5424    5425    5429    5423    5424    5423    5424    5425    5429    5421
    5426    5427    5428    5430    5433    5434    5422    5426    5427    5428
    5430    5431    5432    5433    5434    5435    5427    5428    5424    5425
    5429    5429    5429    5427    5430    5428    5430    5431    5432    5433
    5434    5436    5430    5431    5432    5433    5435    5436       0    5431
    5433    5434    5435    5436    5432    5433    5434    5435    5436    5433
    5435    5434    5435    5436    5436    5436       0    5438    5439    5440
    5441    5442    5443    5444    5445    5446    5447    5448    5449    5450
    5451    5452    5439    5440    5441    5442    5443    5444    5445    5446
    5447    5448    5453    5454    5455    5440    5441    5442    5443    5444
    5445    5446    5448    5449    5450    5451    5455    5456    5441    5442
    5443    5444    5445    5446    5451    5452    5456    5457    5458    5442
    5443    5447    5448    5449    5453    5454    5455    5459    5460    5461
    5447    5448    5444    5447    5448    5449    5450    5451    5455    5459
    5461    5445    5448    5449    5450    5451    5452    5456    5462    5463
    5446    5450    5451    5452    5456    5457    5458    5462    5463    5464
    5451    5452    5448    5453    5454    5455    5459    5460    5465    5449
    5453    5454    5455    5459    5461    5465    5455    5451    5456    5452
    5456    5457    5458    5462    5463    5466    5456    5457    5458    5463
    5464    5466    5467    5468    5454    5455    5459    5460    5461    5465
    5459    5460    5459    5460    5461    5465    5457    5462    5463    5464
    5466    5469    5470    5458    5462    5463    5464    5466    5467    5468
    5469    5470    5471    5463    5464    5460    5461    5465    5465    5465
    5463    5466    5464    5466    5467    5468    5469    5470    5472    5466
    5467    5468    5469    5471    5472       0    5467    5469    5470    5471
    5472    5468    5469    5470    5471    5472    5469    5471    5470    5471
    5472    5472    5472       0    5474    5475    5476    5477    5478    5479
    5480    5481    5482    5483    5484    5485    5486    5487    5488    5475
    5476    5477    5478    5479    5480    5481    5482    5483    5484    5489
    5490    5491    5476    5477    5478    5479    5480    5481    5482    5484
    5485    5486    5487    5491    5492    5477    5478    5479    5480    5481
    5482    5487    5488    5492    5493    5494    5478    5479    5483    5484
    5485    5489    5490    5491    5495    5496    5497    5483    5484    5480
    5483    5484    5485    5486    5487    5491    5495    5497    5481    5484
    5485    5486    5487    5488    5492    5498    5499    5482    5486    5487
    5488    5492    5493    5494    5498    5499    5500    5487    5488    5484
    5489    5490    5491    5495    5496    5501    5485    5489    5490    5491
    5495    5497    5501    5491    5487    5492    5488    5492    5493    5494
    5498    5499    5502    5492    5493    5494    5499    5500    5502    5503
    5504    5490    5491    5495    5496    5497    5501    5495    5496    5495
    5496    5497    5501    5493    5498    5499    5500    5502    5505    5506
    5494    5498    5499    5500    5502    5503    5504    5505    5506    5507
    5499    5500    5496    5497    5501    5501    5501    5499    5502    5500
    5502    5503    5504    5505    5506    5508    5502    5503    5504    5505
    5507    5508       0    5503    5505    5506    5507    5508    5504    5505
    5506    5507    5508    5505    5507    5506    5507    5508    5508    5508
       0    5510    5511    5512    5513    5514    5515    5516    5517    5518
    5519    5520    5521    5522    5523    5524    5511    5512    5513    5514
    5515    5516    5517    5518    5519    5520    5525    5526    5527    5512
    5513    5514    5515    5516    5517    5518    5520    5521    5522    5523
    5527    5528    5513    5514    5515    5516    5517    5518    5523    5524
    5528    5529    5530    5514    5515    5519    5520    5521    5525    5526
    5527    5531    5532    5533    5519    5520    5516    5519    5520    5521
    5522    5523    5527    5531    5533    5517    5520    5521    5522    5523
    5524    5528    5534    5535    5518    5522    5523    5524    5528    5529
    5530    5534    5535    5536    5523    5524    5520    5525    5526    5527
    5531    5532    5537    5521    5525    5526    5527    5531    5533    5537
    5527    5523    5528    5524    5528    5529    5530    5534    5535    5538
    5528    5529    5530    5535    5536    5538    5539    5540    5526    5527
    5531    5532    5533    5537    5531    5532    5531    5532    5533    5537
    5529    5534    5535    5536    5538    5541    5542    5530    5534    5535
    5536    5538    5539    5540    5541    5542    5543    5535    5536    5532
    5533    5537    5537    5537    5535    5538    5536    5538    5539    5540
    5541    5542    5544    5538    5539    5540    5541    5543    5544       0
    5539    5541    5542    5543    5544    5540    5541    5542    5543    5544
    5541    5543    5542    5543    5544    5544    5544       0    5546    5547
    5548    5549    5550    5551    5552    5553    5554    5555    5556    5557
    5558    5559    5560    5547    5548    5549    5550    5551    5552    5553
    5554    5555    5556    5561    5562    5563    5548    5549    5550    5551
    5552    5553    5554    5556    5557    5558    5559    5563    5564    5549
    5550    5551    5552    5553    5554    5559    5560    5564    5565    5566
    5550    5551    5555    5556    5557    5561    5562    5563    5567    5568
    5569    5555    5556    5552    5555    5556    5557    5558    5559    5563
    5567    5569    5553    5556    5557    5558    5559    5560    5564    5570
    5571    5554    5558    5559    5560    5564    5565    5566    5570    5571
    5572    5559    5560    5556    5561    5562    5563    5567    5568    5573
    5557    5561    5562    5563    5567    5569    5573    5563    5559    5564
    5560    5564    5565    5566    5570    5571    5574    5564    5565    5566
    5571    5572    5574    5575    5576    5562    5563    5567    5568    5569
    5573    5567    5568    5567    5568    5569    5573    5565    5570    5571
    5572    5574    5577    5578    5566    5570    5571    5572    5574    5575
    5576    5577    5578    5579    5571    5572    5568    5569    5573    5573
    5573    5571    5574    5572    5574    5575    5576    5577    5578    5580
    5574    5575    5576    5577    5579    5580       0    5575    5577    5578
    5579    5580    5576    5577    5578    5579    5580    5577    5579    5578
    5579    5580    5580    5580       0    5582    5583    5584    5585    5586
    5587    5588    5589    5590    5591    5592    5593    5594    5595    5596
    5583    5584    5585    5586    5587    5588    5589    5590    5591    5592
    5597    5598    5599    5584    5585    5586    5587    5588    5589    5590
    5592    5593    5594    5595    5599    5600    5585    5586    5587    5588
    5589    5590    5595    5596    5600    5601    5602    5586    5587    5591
    5592    5593    5597    5598    5599    5603    5604    5605    5591    5592
    5588    5591    5592    5593    5594    5595    5599    5603    5605    5589
    5592    5593    5594    5595    5596    5600    5606    5607    5590    5594
    5595    5596    5600    5601    5602    5606    5607    5608    5595    5596
    5592    5597    5598    5599    5603    5604    5609    5593    5597    5598
    5599    5603    5605    5609    5599    5595    5600    5596    5600    5601
    5602    5606    5607    5610    5600    5601    5602    5607    5608    5610
    5611    5612    5598    5599    5603    5604    5605    5609    5603    5604
    5603    5604    5605    5609    5601    5606    5607    5608    5610    5613
    5614    5602    5606    5607    5608    5610    5611    5612    5613    5614
    5615    5607    5608    5604    5605    5609    5609    5609    5607    5610
    5608    5610    5611    5612    5613    5614    5616    5610    5611    5612
    5613    5615    5616       0    5611    5613    5614    5615    5616    5612
    5613    5614    5615    5616    5613    5615    5614    5615    5616    5616
    5616       0    5618    5619    5620    5621    5622    5623    5624    5625
    5626    5627    5628    5629    5630    5631    5632    5619    5620    5621
    5622    5623    5624    5625    5626    5627    5628    5633    5634    5635
    5620    5621    5622    5623    5624    5625    5626    5628    5629    5630
    5631    5635    5636    5621    5622    5623    5624    5625    5626    5631
    5632    5636    5637    5638    5622    5623    5627    5628    5629    5633
    5634    5635    5639    5640    5641    5627    5628    5624    5627    5628
    5629    5630    5631    5635    5639    5641    5625    5628    5629    5630
    5631    5632    5636    5642    5643    5626    5630    5631    5632    5636
    5637    5638    5642    5643    5644    5631    5632    5628    5633    5634
    5635    5639    5640    5645    5629    5633    5634    5635    5639    5641
    5645    5635    5631    5636    5632    5636    5637    5638    5642    5643
    5646    5636    5637    5638    5643    5644    5646    5647    5648    5634
    5635    5639    5640    5641    5645    5639    5640    5639    5640    5641
    5645    5637    5642    5643    5644    5646    5649    5650    5638    5642
    5643    5644    5646    5647    5648    5649    5650    5651    5643    5644
    5640    5641    5645    5645    5645    5643    5646    5644    5646    5647
    5648    5649    5650    5652    5646    5647    5648    5649    5651    5652
       0    5647    5649    5650    5651    5652    5648    5649    5650    5651
    5652    5649    5651    5650    5651    5652    5652    5652       0    5654
    5655    5656    5657    5658    5659    5660    5661    5662    5663    5664
    5665    5666    5667    5668    5655    5656    5657    5658    5659    5660
    5661    5662    5663    5664    5669    5670    5671    5656    5657    5658
    5659    5660    5661    5662    5664    5665    5666    5667    5671    5672
    5657    5658    5659    5660    5661    5662    5667    5668    5672    5673
    5674    5658    5659    5663    5664    5665    5669    5670    5671    5675
    5676    5677    5663    5664    5660    5663    5664    5665    5666    5667
    5671    5675    5677    5661    5664    5665    5666    5667    5668    5672
    5678    5679    5662    5666    5667    5668    5672    5673    5674    5678
    5679    5680    5667    5668    5664    5669    5670    5671    5675    5676
    5681    5665    5669    5670    5671    5675    5677    5681    5671    5667
    5672    5668    5672    5673    5674    5678    5679    5682    5672    5673
    5674    5679    5680    5682    5683    5684    5670    5671    5675    5676
    5677    5681    5675    5676    5675    5676    5677    5681    5673    5678
    5679    5680    5682    5685    5686    5674    5678    5679    5680    5682
    5683    5684    5685    5686    5687    5679    5680    5676    5677    5681
    5681    5681    5679    5682    5680    5682    5683    5684    5685    5686
    5688    5682    5683    5684    5685    5687    5688       0    5683    5685
    5686    5687    5688    5684    5685    5686    5687    5688    5685    5687
    5686    5687    5688    5688    5688       0    5690    5691    5692    5693
    5694    5695    5696    5697    5698    5699    5700    5701    5702    5703
    5704    5691    5692    5693    5694    5695    5696    5697    5698    5699
    5700    5705    5706    5707    5692    5693    5694    5695    5696    5697
    5698    5700    5701    5702    5703    5707    5708    5693    5694    5695
    5696    5697    5698    5703    5704    5708    5709    5710    5694    5695
    5699    5700    5701    5705    5706    5707    5711    5712    5713    5699
    5700    5696    5699    5700    5701    5702    5703    5707    5711    5713
    5697    5700    5701    5702    5703    5704    5708    5714    5715    5698
    5702    5703    5704    5708    5709    5710    5714    5715    5716    5703
    5704    5700    5705    5706    5707    5711    5712    5717    5701    5705
    5706    5707    5711    5713    5717    5707    5703    5708    5704    5708
    5709    5710    5714    5715    5718    5708    5709    5710    5715    5716
    5718    5719    5720    5706    5707    5711    5712    5713    5717    5711
    5712    5711    5712    5713    5717    5709    5714    5715    5716    5718
    5721    5722    5710    5714    5715    5716    5718    5719    5720    5721
    5722    5723    5715    5716    5712    5713    5717    5717    5717    5715
    5718    5716    5718    5719    5720    5721    5722    5724    5718    5719
    5720    5721    5723    5724       0    5719    5721    5722    5723    5724
    5720    5721    5722    5723    5724    5721    5723    5722    5723    5724
    5724    5724       0    5726    5727    5728    5729    5730    5731    5732
    5733    5734    5735    5736    5737    5738    5739    5740    5727    5728
    5729    5730    5731    5732    5733    5734    5735    5736    5741    5742
    5743    5728    5729    5730    5731    5732    5733    5734    5736    5737
    5738    5739    5743    5744    5729    5730    5731    5732    5733    5734
    5739    5740    5744    5745    5746    5730    5731    5735    5736    5737
    5741    5742    5743    5747    5748    5749    5735    5736    5732    5735
    5736    5737    5738    5739    5743    5747    5749    5733    5736    5737
    5738    5739    5740    5744    5750    5751    5734    5738    5739    5740
    5744    5745    5746    5750    5751    5752    5739    5740    5736    5741
    5742    5743    5747    5748    5753    5737    5741    5742    5743    5747
    5749    5753    5743    5739    5744    5740    5744    5745    5746    5750
    5751    5754    5744    5745    5746    5751    5752    5754    5755    5756
    5742    5743    5747    5748    5749    5753    5747    5748    5747    5748
    5749    5753    5745    5750    5751    5752    5754    5757    5758    5746
    5750    5751    5752    5754    5755    5756    5757    5758    5759    5751
    5752    5748    5749    5753    5753    5753    5751    5754    5752    5754
    5755    5756    5757    5758    5760    5754    5755    5756    5757    5759
    5760       0    5755    5757    5758    5759    5760    5756    5757    5758
    5759    5760    5757    5759    5758    5759    5760    5760    5760       0
    5762    5763    5764    5765    5766    5767    5768    5769    5770    5771
    5772    5773    5774    5775    5776    5763    5764    5765    5766    5767
    5768    5769    5770    5771    5772    5777    5778    5779    5764    5765
    5766    5767    5768    5769    5770    5772    5773    5774    5775    5779
    5780    5765    5766    5767    5768    5769    5770    5775    5776    5780
    5781    5782    5766    5767    5771    5772    5773    5777    5778    5779
    5783    5784    5785    5771    5772    5768    5771    5772    5773    5774
    5775    5779    5783    5785    5769    5772    5773    5774    5775    5776
    5780    5786    5787    5770    5774    5775    5776    5780    5781    5782
    5786    5787    5788    5775    5776    5772    5777    5778    5779    5783
    5784    5789    5773    5777    5778    5779    5783    5785    5789    5779
    5775    5780    5776    5780    5781    5782    5786    5787    5790    5780
    5781    5782    5787    5788    5790    5791    5792    5778    5779    5783
    5784    5785    5789    5783    5784    5783    5784    5785    5789    5781
    5786    5787    5788    5790    5793    5794    5782    5786    5787    5788
    5790    5791    5792    5793    5794    5795    5787    5788    5784    5785
    5789    5789    5789    5787    5790    5788    5790    5791    5792    5793
    5794    5796    5790    5791    5792    5793    5795    5796       0    5791
    5793    5794    5795    5796    5792    5793    5794    5795    5796    5793
    5795    5794    5795    5796    5796    5796       0    5798    5799    5800
    5801    5802    5803    5804    5805    5806    5807    5808    5809    5810
    5811    5812    5799    5800    5801    5802    5803    5804    5805    5806
    5807    5808    5813    5814    5815    5800    5801    5802    5803    5804
    5805    5806    5808    5809    5810    5811    5815    5816    5801    5802
    5803    5804    5805    5806    5811    5812    5816    5817    5818    5802
    5803    5807    5808    5809    5813    5814    5815    5819    5820    5821
    5807    5808    5804    5807    5808    5809    5810    5811    5815    5819
    5821    5805    5808    5809    5810    5811    5812    5816    5822    5823
    5806    5810    5811    5812    5816    5817    5818    5822    5823    5824
    5811    5812    5808    5813    5814    5815    5819    5820    5825    5809
    5813    5814    5815    5819    5821    5825    5815    5811    5816    5812
    5816    5817    5818    5822    5823    5826    5816    5817    5818    5823
    5824    5826    5827    5828    5814    5815    5819    5820    5821    5825
    5819    5820    5819    5820    5821    5825    5817    5822    5823    5824
    5826    5829    5830    5818    5822    5823    5824    5826    5827    5828
    5829    5830    5831    5823    5824    5820    5821    5825    5825    5825
    5823    5826    5824    5826    5827    5828    5829    5830    5832    5826
    5827    5828    5829    5831    5832       0    5827    5829    5830    5831
    5832    5828    5829    5830    5831    5832    5829    5831    5830    5831
    5832    5832    5832       0    5834    5835    5836    5837    5838    5839
    5840    5841    5842    5843    5844    5845    5846    5847    5848    5835
    5836    5837    5838    5839    5840    5841    5842    5843    5844    5849
    5850    5851    5836    5837    5838    5839    5840    5841    5842    5844
    5845    5846    5847    5851    5852    5837    5838    5839    5840    5841
    5842    5847    5848    5852    5853    5854    5838    5839    5843    5844
    5845    5849    5850    5851    5855    5856    5857    5843    5844    5840
    5843    5844    5845    5846    5847    5851    5855    5857    5841    5844
    5845    5846    5847    5848    5852    5858    5859    5842    5846    5847
    5848    5852    5853    5854    5858    5859    5860    5847    5848    5844
    5849    5850    5851    5855    5856    5861    5845    5849    5850    5851
    5855    5857    5861    5851    5847    5852    5848    5852    5853    5854
    5858    5859    5862    5852    5853    5854    5859    5860    5862    5863
    5864    5850    5851    5855    5856    5857    5861    5855    5856    5855
    5856    5857    5861    5853    5858    5859    5860    5862    5865    5866
    5854    5858    5859    5860    5862    5863    5864    5865    5866    5867
    5859    5860    5856    5857    5861    5861    5861    5859    5862    5860
    5862    5863    5864    5865    5866    5868    5862    5863    5864    5865
    5867    5868       0    5863    5865    5866    5867    5868    5864    5865
    5866    5867    5868    5865    5867    5866    5867    5868    5868    5868
       0    5870    5871    5872    5873    5874    5875    5876    5877    5878
    5879    5880    5881    5882    5883    5884    5871    5872    5873    5874
    5875    5876    5877    5878    5879    5880    5885    5886    5887    5872
    5873    5874    5875    5876    5877    5878    5880    5881    5882    5883
    5887    5888    5873    5874    5875    5876    5877    5878    5883    5884
    5888    5889    5890    5874    5875    5879    5880    5881    5885    5886
    5887    5891    5892    5893    5879    5880    5876    5879    5880    5881
    5882    5883    5887    5891    5893    5877    5880    5881    5882    5883
    5884    5888    5894    5895    5878    5882    5883    5884    5888    5889
    5890    5894    5895    5896    5883    5884    5880    5885    5886    5887
    5891    5892    5897    5881    5885    5886    5887    5891    5893    5897
    5887    5883    5888    5884    5888    5889    5890    5894    5895    5898
    5888    5889    5890    5895    5896    5898    5899    5900    5886    5887
    5891    5892    5893    5897    5891    5892    5891    5892    5893    5897
    5889    5894    5895    5896    5898    5901    5902    5890    5894    5895
    5896    5898    5899    5900    5901    5902    5903    5895    5896    5892
    5893    5897    5897    5897    5895    5898    5896    5898    5899    5900
    5901    5902    5904    5898    5899    5900    5901    5903    5904       0
    5899    5901    5902    5903    5904    5900    5901    5902    5903    5904
    5901    5903    5902    5903    5904    5904    5904       0    5906    5907
    5908    5909    5910    5911    5912    5913    5914    5915    5916    5917
    5918    5919    5920    5907    5908    5909    5910    5911    5912    5913
    5914    5915    5916    5921    5922    5923    5908    5909    5910    5911
    5912    5913    5914    5916    5917    5918    5919    5923    5924    5909
    5910    5911    5912    5913    5914    5919    5920    5924    5925    5926
    5910    5911    5915    5916    5917    5921    5922    5923    5927    5928
    5929    5915    5916    5912    5915    5916    5917    5918    5919    5923
    5927    5929    5913    5916    5917    5918    5919    5920    5924    5930
    5931    5914    5918    5919    5920    5924    5925    5926    5930    5931
    5932    5919    5920    5916    5921    5922    5923    5927    5928    5933
    5917    5921    5922    5923    5927    5929    5933    5923    5919    5924
    5920    5924    5925    5926    5930    5931    5934    5924    5925    5926
    5931    5932    5934    5935    5936    5922    5923    5927    5928    5929
    5933    5927    5928    5927    5928    5929    5933    5925    5930    5931
    5932    5934    5937    5938    5926    5930    5931    5932    5934    5935
    5936    5937    5938    5939    5931    5932    5928    5929    5933    5933
    5933    5931    5934    5932    5934    5935    5936    5937    5938    5940
    5934    5935    5936    5937    5939    5940       0    5935    5937    5938
    5939    5940    5936    5937    5938    5939    5940    5937    5939    5938
    5939    5940    5940    5940       0    5942    5943    5944    5945    5946
    5947    5948    5949    5950    5951    5952    5953    5954    5955    5956
    5943    5944    5945    5946    5947    5948    5949    5950    5951    5952
    5957    5958    5959    5944    5945    5946    5947    5948    5949    5950
    5952    5953    5954    5955    5959    5960    5945    5946    5947    5948
    5949    5950    5955    5956    5960    5961    5962    5946    5947    5951
    5952    5953    5957    5958    5959    5963    5964    5965    5951    5952
    5948    5951    5952    5953    5954    5955    5959    5963    5965    5949
    5952    5953    5954    5955    5956    5960    5966    5967    5950    5954
    5955    5956    5960    5961    5962    5966    5967    5968    5955    5956
    5952    5957    5958    5959    5963    5964    5969    5953    5957    5958
    5959    5963    5965    5969    5959    5955    5960    5956    5960    5961
    5962    5966    5967    5970    5960    5961    5962    5967    5968    5970
    5971    5972    5958    5959    5963    5964    5965    5969    5963    5964
    5963    5964    5965    5969    5961    5966    5967    5968    5970    5973
    5974    5962    5966    5967    5968    5970    5971    5972    5973    5974
    5975    5967    5968    5964    5965    5969    5969    5969    5967    5970
    5968    5970    5971    5972    5973    5974    5976    5970    5971    5972
    5973    5975    5976       0    5971    5973    5974    5975    5976    5972
    5973    5974    5975    5976    5973    5975    5974    5975    5976    5976
    5976       0    5978    5979    5980    5981    5982    5983    5984    5985
    5986    5987    5988    5989    5990    5991    5992    5979    5980    5981
    5982    5983    5984    5985    5986    5987    5988    5993    5994    5995
    5980    5981    5982    5983    5984    5985    5986    5988    5989    5990
    5991    5995    5996    5981    5982    5983    5984    5985    5986    5991
    5992    5996    5997    5998    5982    5983    5987    5988    5989    5993
    5994    5995    5999    6000    6001    5987    5988    5984    5987    5988
    5989    5990    5991    5995    5999    6001    5985    5988    5989    5990
    5991    5992    5996    6002    6003    5986    5990    5991    5992    5996
    5997    5998    6002    6003    6004    5991    5992    5988    5993    5994
    5995    5999    6000    6005    5989    5993    5994    5995    5999    6001
    6005    5995    5991    5996    5992    5996    5997    5998    6002    6003
    6006    5996    5997    5998    6003    6004    6006    6007    6008    5994
    5995    5999    6000    6001    6005    5999    6000    5999    6000    6001
    6005    5997    6002    6003    6004    6006    6009    6010    5998    6002
    6003    6004    6006    6007    6008    6009    6010    6011    6003    6004
    6000    6001    6005    6005    6005    6003    6006    6004    6006    6007
    6008    6009    6010    6012    6006    6007    6008    6009    6011    6012
       0    6007    6009    6010    6011    6012    6008    6009    6010    6011
    6012    6009    6011    6010    6011    6012    6012    6012       0    6014
    6015    6016    6017    6018    6019    6020    6021    6022    6023    6024
    6025    6026    6027    6028    6015    6016    6017    6018    6019    6020
    6021    6022    6023    6024    6029    6030    6031    6016    6017    6018
    6019    6020    6021    6022    6024    6025    6026    6027    6031    6032
    6017    6018    6019    6020    6021    6022    6027    6028    6032    6033
    6034    6018    6019    6023    6024    6025    6029    6030    6031    6035
    6036    6037    6023    6024    6020    6023    6024    6025    6026    6027
    6031    6035    6037    6021    6024    6025    6026    6027    6028    6032
    6038    6039    6022    6026    6027    6028    6032    6033    6034    6038
    6039    6040    6027    6028    6024    6029    6030    6031    6035    6036
    6041    6025    6029    6030    6031    6035    6037    6041    6031    6027
    6032    6028    6032    6033    6034    6038    6039    6042    6032    6033
    6034    6039    6040    6042    6043    6044    6030    6031    6035    6036
    6037    6041    6035    6036    6035    6036    6037    6041    6033    6038
    6039    6040    6042    6045    6046    6034    6038    6039    6040    6042
    6043    6044    6045    6046    6047    6039    6040    6036    6037    6041
    6041    6041    6039    6042    6040    6042    6043    6044    6045    6046
    6048    6042    6043    6044    6045    6047    6048       0    6043    6045
    6046    6047    6048    6044    6045    6046    6047    6048    6045    6047
    6046    6047    6048    6048    6048       0    6050    6051    6052    6053
    6054    6055    6056    6057    6058    6059    6060    6061    6062    6063
    6064    6051    6052    6053    6054    6055    6056    6057    6058    6059
    6060    6065    6066    6067    6052    6053    6054    6055    6056    6057
    6058    6060    6061    6062    6063    6067    6068    6053    6054    6055
    6056    6057    6058    6063    6064    6068    6069    6070    6054    6055
    6059    6060    6061    6065    6066    6067    6071    6072    6073    6059
    6060    6056    6059    6060    6061    6062    6063    6067    6071    6073
    6057    6060    6061    6062    6063    6064    6068    6074    6075    6058
    6062    6063    6064    6068    6069    6070    6074    6075    6076    6063
    6064    6060    6065    6066    6067    6071    6072    6077    6061    6065
    6066    6067    6071    6073    6077    6067    6063    6068    6064    6068
    6069    6070    6074    6075    6078    6068    6069    6070    6075    6076
    6078    6079    6080    6066    6067    6071    6072    6073    6077    6071
    6072    6071    6072    6073    6077    6069    6074    6075    6076    6078
    6081    6082    6070    6074    6075    6076    6078    6079    6080    6081
    6082    6083    6075    6076    6072    6073    6077    6077    6077    6075
    6078    6076    6078    6079    6080    6081    6082    6084    6078    6079
    6080    6081    6083    6084       0    6079    6081    6082    6083    6084
    6080    6081    6082    6083    6084    6081    6083    6082    6083    6084
    6084    6084       0    6086    6087    6088    6089    6090    6091    6092
    6093    6094    6095    6096    6097    6098    6099    6100    6087    6088
    6089    6090    6091    6092    6093    6094    6095    6096    6101    6102
    6103    6088    6089    6090    6091    6092    6093    6094    6096    6097
    6098    6099    6103    6104    6089    6090    6091    6092    6093    6094
    6099    6100    6104    6105    6106    6090    6091    6095    6096    6097
    6101    6102    6103    6107    6108    6109    6095    6096    6092    6095
    6096    6097    6098    6099    6103    6107    6109    6093    6096    6097
    6098    6099    6100    6104    6110    6111    6094    6098    6099    6100
    6104    6105    6106    6110    6111    6112    6099    6100    6096    6101
    6102    6103    6107    6108    6113    6097    6101    6102    6103    6107
    6109    6113    6103    6099    6104    6100    6104    6105    6106    6110
    6111    6114    6104    6105    6106    6111    6112    6114    6115    6116
    6102    6103    6107    6108    6109    6113    6107    6108    6107    6108
    6109    6113    6105    6110    6111    6112    6114    6117    6118    6106
    6110    6111    6112    6114    6115    6116    6117    6118    6119    6111
    6112    6108    6109    6113    6113    6113    6111    6114    6112    6114
    6115    6116    6117    6118    6120    6114    6115    6116    6117    6119
    6120       0    6115    6117    6118    6119    6120    6116    6117    6118
    6119    6120    6117    6119    6118    6119    6120    6120    6120       0
    6122    6123    6124    6125    6126    6127    6128    6129    6130    6131
    6132    6133    6134    6135    6136    6123    6124    6125    6126    6127
    6128    6129    6130    6131    6132    6137    6138    6139    6124    6125
    6126    6127    6128    6129    6130    6132    6133    6134    6135    6139
    6140    6125    6126    6127    6128    6129    6130    6135    6136    6140
    6141    6142    6126    6127    6131    6132    6133    6137    6138    6139
    6143    6144    6145    6131    6132    6128    6131    6132    6133    6134
    6135    6139    6143    6145    6129    6132    6133    6134    6135    6136
    6140    6146    6147    6130    6134    6135    6136    6140    6141    6142
    6146    6147    6148    6135    6136    6132    6137    6138    6139    6143
    6144    6149    6133    6137    6138    6139    6143    6145    6149    6139
    6135    6140    6136    6140    6141    6142    6146    6147    6150    6140
    6141    6142    6147    6148    6150    6151    6152    6138    6139    6143
    6144    6145    6149    6143    6144    6143    6144    6145    6149    6141
    6146    6147    6148    6150    6153    6154    6142    6146    6147    6148
    6150    6151    6152    6153    6154    6155    6147    6148    6144    6145
    6149    6149    6149    6147    6150    6148    6150    6151    6152    6153
    6154    6156    6150    6151    6152    6153    6155    6156       0    6151
    6153    6154    6155    6156    6152    6153    6154    6155    6156    6153
    6155    6154    6155    6156    6156    6156       0    6158    6159    6160
    6161    6162    6163    6164    6165    6166    6167    6168    6169    6170
    6171    6172    6159    6160    6161    6162    6163    6164    6165    6166
    6167    6168    6173    6174    6175    6160    6161    6162    6163    6164
    6165    6166    6168    6169    6170    6171    6175    6176    6161    6162
    6163    6164    6165    6166    6171    6172    6176    6177    6178    6162
    6163    6167    6168    6169    6173    6174    6175    6179    6180    6181
    6167    6168    6164    6167    6168    6169    6170    6171    6175    6179
    6181    6165    6168    6169    6170    6171    6172    6176    6182    6183
    6166    6170    6171    6172    6176    6177    6178    6182    6183    6184
    6171    6172    6168    6173    6174    6175    6179    6180    6185    6169
    6173    6174    6175    6179    6181    6185    6175    6171    6176    6172
    6176    6177    6178    6182    6183    6186    6176    6177    6178    6183
    6184    6186    6187    6188    6174    6175    6179    6180    6181    6185
    6179    6180    6179    6180    6181    6185    6177    6182    6183    6184
    6186    6189    6190    6178    6182    6183    6184    6186    6187    6188
    6189    6190    6191    6183    6184    6180    6181    6185    6185    6185
    6183    6186    6184    6186    6187    6188    6189    6190    6192    6186
    6187    6188    6189    6191    6192       0    6187    6189    6190    6191
    6192    6188    6189    6190    6191    6192    6189    6191    6190    6191
    6192    6192    6192       0    6194    6195    6196    6197    6198    6199
    6200    6201    6202    6203    6204    6205    6206    6207    6208    6195
    6196    6197    6198    6199    6200    6201    6202    6203    6204    6209
    6210    6211    6196    6197    6198    6199    6200    6201    6202    6204
    6205    6206    6207    6211    6212    6197    6198    6199    6200    6201
    6202    6207    6208    6212    6213    6214    6198    6199    6203    6204
    6205    6209    6210    6211    6215    6216    6217    6203    6204    6200
    6203    6204    6205    6206    6207    6211    6215    6217    6201    6204
    6205    6206    6207    6208    6212    6218    6219    6202    6206    6207
    6208    6212    6213    6214    6218    6219    6220    6207    6208    6204
    6209    6210    6211    6215    6216    6221    6205    6209    6210    6211
    6215    6217    6221    6211    6207    6212    6208    6212    6213    6214
    6218    6219    6222    6212    6213    6214    6219    6220    6222    6223
    6224    6210    6211    6215    6216    6217    6221    6215    6216    6215
    6216    6217    6221    6213    6218    6219    6220    6222    6225    6226
    6214    6218    6219    6220    6222    6223    6224    6225    6226    6227
    6219    6220    6216    6217    6221    6221    6221    6219    6222    6220
    6222    6223    6224    6225    6226    6228    6222    6223    6224    6225
    6227    6228       0    6223    6225    6226    6227    6228    6224    6225
    6226    6227    6228    6225    6227    6226    6227    6228    6228    6228
       0    6230    6231    6232    6233    6234    6235    6236    6237    6238
    6239    6240    6241    6242    6243    6244    6231    6232    6233    6234
    6235    6236    6237    6238    6239    6240    6245    6246    6247    6232
    6233    6234    6235    6236    6237    6238    6240    6241    6242    6243
    6247    6248    6233    6234    6235    6236    6237    6238    6243    6244
    6248    6249    6250    6234    6235    6239    6240    6241    6245    6246
    6247    6251    6252    6253    6239    6240    6236    6239    6240    6241
    6242    6243    6247    6251    6253    6237    6240    6241    6242    6243
    6244    6248    6254    6255    6238    6242    6243    6244    6248    6249
    6250    6254    6255    6256    6243    6244    6240    6245    6246    6247
    6251    6252    6257    6241    6245    6246    6247    6251    6253    6257
    6247    6243    6248    6244    6248    6249    6250    6254    6255    6258
    6248    6249    6250    6255    6256    6258    6259    6260    6246    6247
    6251    6252    6253    6257    6251    6252    6251    6252    6253    6257
    6249    6254    6255    6256    6258    6261    6262    6250    6254    6255
    6256    6258    6259    6260    6261    6262    6263    6255    6256    6252
    6253    6257    6257    6257    6255    6258    6256    6258    6259    6260
    6261    6262    6264    6258    6259    6260    6261    6263    6264       0
    6259    6261    6262    6263    6264    6260    6261    6262    6263    6264
    6261    6263    6262    6263    6264    6264    6264       0    6266    6267
    6268    6269    6270    6271    6272    6273    6274    6275    6276    6277
    6278    6279    6280    6267    6268    6269    6270    6271    6272    6273
    6274    6275    6276    6281    6282    6283    6268    6269    6270    6271
    6272    6273    6274    6276    6277    6278    6279    6283    6284    6269
    6270    6271    6272    6273    6274    6279    6280    6284    6285    6286
    6270    6271    6275    6276    6277    6281    6282    6283    6287    6288
    6289    6275    6276    6272    6275    6276    6277    6278    6279    6283
    6287    6289    6273    6276    6277    6278    6279    6280    6284    6290
    6291    6274    6278    6279    6280    6284    6285    6286    6290    6291
    6292    6279    6280    6276    6281    6282    6283    6287    6288    6293
    6277    6281    6282    6283    6287    6289    6293    6283    6279    6284
    6280    6284    6285    6286    6290    6291    6294    6284    6285    6286
    6291    6292    6294    6295    6296    6282    6283    6287    6288    6289
    6293    6287    6288    6287    6288    6289    6293    6285    6290    6291
    6292    6294    6297    6298    6286    6290    6291    6292    6294    6295
    6296    6297    6298    6299    6291    6292    6288    6289    6293    6293
    6293    6291    6294    6292    6294    6295    6296    6297    6298    6300
    6294    6295    6296    6297    6299    6300       0    6295    6297    6298
    6299    6300    6296    6297    6298    6299    6300    6297    6299    6298
    6299    6300    6300    6300       0    6302    6303    6304    6305    6306
    6307    6308    6309    6310    6311    6312    6313    6314    6315    6316
    6303    6304    6305    6306    6307    6308    6309    6310    6311    6312
    6317    6318    6319    6304    6305    6306    6307    6308    6309    6310
    6312    6313    6314    6315    6319    6320    6305    6306    6307    6308
    6309    6310    6315    6316    6320    6321    6322    6306    6307    6311
    6312    6313    6317    6318    6319    6323    6324    6325    6311    6312
    6308    6311    6312    6313    6314    6315    6319    6323    6325    6309
    6312    6313    6314    6315    6316    6320    6326    6327    6310    6314
    6315    6316    6320    6321    6322    6326    6327    6328    6315    6316
    6312    6317    6318    6319    6323    6324    6329    6313    6317    6318
    6319    6323    6325    6329    6319    6315    6320    6316    6320    6321
    6322    6326    6327    6330    6320    6321    6322    6327    6328    6330
    6331    6332    6318    6319    6323    6324    6325    6329    6323    6324
    6323    6324    6325    6329    6321    6326    6327    6328    6330    6333
    6334    6322    6326    6327    6328    6330    6331    6332    6333    6334
    6335    6327    6328    6324    6325    6329    6329    6329    6327    6330
    6328    6330    6331    6332    6333    6334    6336    6330    6331    6332
    6333    6335    6336       0    6331    6333    6334    6335    6336    6332
    6333    6334    6335    6336    6333    6335    6334    6335    6336    6336
    6336       0    6338    6339    6340    6341    6342    6343    6344    6345
    6346    6347    6348    6349    6350    6351    6352    6339    6340    6341
    6342    6343    6344    6345    6346    6347    6348    6353    6354    6355
    6340    6341    6342    6343    6344    6345    6346    6348    6349    6350
    6351    6355    6356    6341    6342    6343    6344    6345    6346    6351
    6352    6356    6357    6358    6342    6343    6347    6348    6349    6353
    6354    6355    6359    6360    6361    6347    6348    6344    6347    6348
    6349    6350    6351    6355    6359    6361    6345    6348    6349    6350
    6351    6352    6356    6362    6363    6346    6350    6351    6352    6356
    6357    6358    6362    6363    6364    6351    6352    6348    6353    6354
    6355    6359    6360    6365    6349    6353    6354    6355    6359    6361
    6365    6355    6351    6356    6352    6356    6357    6358    6362    6363
    6366    6356    6357    6358    6363    6364    6366    6367    6368    6354
    6355    6359    6360    6361    6365    6359    6360    6359    6360    6361
    6365    6357    6362    6363    6364    6366    6369    6370    6358    6362
    6363    6364    6366    6367    6368    6369    6370    6371    6363    6364
    6360    6361    6365    6365    6365    6363    6366    6364    6366    6367
    6368    6369    6370    6372    6366    6367    6368    6369    6371    6372
       0    6367    6369    6370    6371    6372    6368    6369    6370    6371
    6372    6369    6371    6370    6371    6372    6372    6372       0    6374
    6375    6376    6377    6378    6379    6380    6381    6382    6383    6384
    6385    6386    6387    6388    6375    6376    6377    6378    6379    6380
    6381    6382    6383    6384    6389    6390    6391    6376    6377    6378
    6379    6380    6381    6382    6384    6385    6386    6387    6391    6392
    6377    6378    6379    6380    6381    6382    6387    6388    6392    6393
    6394    6378    6379    6383    6384    6385    6389    6390    6391    6395
    6396    6397    6383    6384    6380    6383    6384    6385    6386    6387
    6391    6395    6397    6381    6384    6385    6386    6387    6388    6392
    6398    6399    6382    6386    6387    6388    6392    6393    6394    6398
    6399    6400    6387    6388    6384    6389    6390    6391    6395    6396
    6401    6385    6389    6390    6391    6395    6397    6401    6391    6387
    6392    6388    6392    6393    6394    6398    6399    6402    6392    6393
    6394    6399    6400    6402    6403    6404    6390    6391    6395    6396
    6397    6401    6395    6396    6395    6396    6397    6401    6393    6398
    6399    6400    6402    6405    6406    6394    6398    6399    6400    6402
    6403    6404    6405    6406    6407    6399    6400    6396    6397    6401
    6401    6401    6399    6402    6400    6402    6403    6404    6405    6406
    6408    6402    6403    6404    6405    6407    6408       0    6403    6405
    6406    6407    6408    6404    6405    6406    6407    6408    6405    6407
    6406    6407    6408    6408    6408       0    6410    6411    6412    6413
    6414    6415    6416    6417    6418    6419    6420    6421    6422    6423
    6424    6411    6412    6413    6414    6415    6416    6417    6418    6419
    6420    6425    6426    6427    6412    6413    6414    6415    6416    6417
    6418    6420    6421    6422    6423    6427    6428    6413    6414    6415
    6416    6417    6418    6423    6424    6428    6429    6430    6414    6415
    6419    6420    6421    6425    6426    6427    6431    6432    6433    6419
    6420    6416    6419    6420    6421    6422    6423    6427    6431    6433
    6417    6420    6421    6422    6423    6424    6428    6434    6435    6418
    6422    6423    6424    6428    6429    6430    6434    6435    6436    6423
    6424    6420    6425    6426    6427    6431    6432    6437    6421    6425
    6426    6427    6431    6433    6437    6427    6423    6428    6424    6428
    6429    6430    6434    6435    6438    6428    6429    6430    6435    6436
    6438    6439    6440    6426    6427    6431    6432    6433    6437    6431
    6432    6431    6432    6433    6437    6429    6434    6435    6436    6438
    6441    6442    6430    6434    6435    6436    6438    6439    6440    6441
    6442    6443    6435    6436    6432    6433    6437    6437    6437    6435
    6438    6436    6438    6439    6440    6441    6442    6444    6438    6439
    6440    6441    6443    6444       0    6439    6441    6442    6443    6444
    6440    6441    6442    6443    6444    6441    6443    6442    6443    6444
    6444    6444       0    6446    6447    6448    6449    6450    6451    6452
    6453    6454    6455    6456    6457    6458    6459    6460    6447    6448
    6449    6450    6451    6452    6453    6454    6455    6456    6461    6462
    6463    6448    6449    6450    6451    6452    6453    6454    6456    6457
    6458    6459    6463    6464    6449    6450    6451    6452    6453    6454
    6459    6460    6464    6465    6466    6450    6451    6455    6456    6457
    6461    6462    6463    6467    6468    6469    6455    6456    6452    6455
    6456    6457    6458    6459    6463    6467    6469    6453    6456    6457
    6458    6459    6460    6464    6470    6471    6454    6458    6459    6460
    6464    6465    6466    6470    6471    6472    6459    6460    6456    6461
    6462    6463    6467    6468    6473    6457    6461    6462    6463    6467
    6469    6473    6463    6459    6464    6460    6464    6465    6466    6470
    6471    6474    6464    6465    6466    6471    6472    6474    6475    6476
    6462    6463    6467    6468    6469    6473    6467    6468    6467    6468
    6469    6473    6465    6470    6471    6472    6474    6477    6478    6466
    6470    6471    6472    6474    6475    6476    6477    6478    6479    6471
    6472    6468    6469    6473    6473    6473    6471    6474    6472    6474
    6475    6476    6477    6478    6480    6474    6475    6476    6477    6479
    6480       0    6475    6477    6478    6479    6480    6476    6477    6478
    6479    6480    6477    6479    6478    6479    6480    6480    6480       0
    6482    6483    6484    6485    6486    6487    6488    6489    6490    6491
    6492    6493    6494    6495    6496    6483    6484    6485    6486    6487
    6488    6489    6490    6491    6492    6497    6498    6499    6484    6485
    6486    6487    6488    6489    6490    6492    6493    6494    6495    6499
    6500    6485    6486    6487    6488    6489    6490    6495    6496    6500
    6501    6502    6486    6487    6491    6492    6493    6497    6498    6499
    6503    6504    6505    6491    6492    6488    6491    6492    6493    6494
    6495    6499    6503    6505    6489    6492    6493    6494    6495    6496
    6500    6506    6507    6490    6494    6495    6496    6500    6501    6502
    6506    6507    6508    6495    6496    6492    6497    6498    6499    6503
    6504    6509    6493    6497    6498    6499    6503    6505    6509    6499
    6495    6500    6496    6500    6501    6502    6506    6507    6510    6500
    6501    6502    6507    6508    6510    6511    6512    6498    6499    6503
    6504    6505    6509    6503    6504    6503    6504    6505    6509    6501
    6506    6507    6508    6510    6513    6514    6502    6506    6507    6508
    6510    6511    6512    6513    6514    6515    6507    6508    6504    6505
    6509    6509    6509    6507    6510    6508    6510    6511    6512    6513
    6514    6516    6510    6511    6512    6513    6515    6516       0    6511
    6513    6514    6515    6516    6512    6513    6514    6515    6516    6513
    6515    6514    6515    6516    6516    6516       0    6518    6519    6520
    6521    6522    6523    6524    6525    6526    6527    6528    6529    6530
    6531    6532    6519    6520    6521    6522    6523    6524    6525    6526
    6527    6528    6533    6534    6535    6520    6521    6522    6523    6524
    6525    6526    6528    6529    6530    6531    6535    6536    6521    6522
    6523    6524    6525    6526    6531    6532    6536    6537    6538    6522
    6523    6527    6528    6529    6533    6534    6535    6539    6540    6541
    6527    6528    6524    6527    6528    6529    6530    6531    6535    6539
    6541    6525    6528    6529    6530    6531    6532    6536    6542    6543
    6526    6530    6531    6532    6536    6537    6538    6542    6543    6544
    6531    6532    6528    6533    6534    6535    6539    6540    6545    6529
    6533    6534    6535    6539    6541    6545    6535    6531    6536    6532
    6536    6537    6538    6542    6543    6546    6536    6537    6538    6543
    6544    6546    6547    6548    6534    6535    6539    6540    6541    6545
    6539    6540    6539    6540    6541    6545    6537    6542    6543    6544
    6546    6549    6550    6538    6542    6543    6544    6546    6547    6548
    6549    6550    6551    6543    6544    6540    6541    6545    6545    6545
    6543    6546    6544    6546    6547    6548    6549    6550    6552    6546
    6547    6548    6549    6551    6552       0    6547    6549    6550    6551
    6552    6548    6549    6550    6551    6552    6549    6551    6550    6551
    6552    6552    6552       0    6554    6555    6556    6557    6558    6559
    6560    6561    6562    6563    6564    6565    6566    6567    6568    6555
    6556    6557    6558    6559    6560    6561    6562    6563    6564    6569
    6570    6571    6556    6557    6558    6559    6560    6561    6562    6564
    6565    6566    6567    6571    6572    6557    6558    6559    6560    6561
    6562    6567    6568    6572    6573    6574    6558    6559    6563    6564
    6565    6569    6570    6571    6575    6576    6577    6563    6564    6560
    6563    6564    6565    6566    6567    6571    6575    6577    6561    6564
    6565    6566    6567    6568    6572    6578    6579    6562    6566    6567
    6568    6572    6573    6574    6578    6579    6580    6567    6568    6564
    6569    6570    6571    6575    6576    6581    6565    6569    6570    6571
    6575    6577    6581    6571    6567    6572    6568    6572    6573    6574
    6578    6579    6582    6572    6573    6574    6579    6580    6582    6583
    6584    6570    6571    6575    6576    6577    6581    6575    6576    6575
    6576    6577    6581    6573    6578    6579    6580    6582    6585    6586
    6574    6578    6579    6580    6582    6583    6584    6585    6586    6587
    6579    6580    6576    6577    6581    6581    6581    6579    6582    6580
    6582    6583    6584    6585    6586    6588    6582    6583    6584    6585
    6587    6588       0    6583    6585    6586    6587    6588    6584    6585
    6586    6587    6588    6585    6587    6586    6587    6588    6588    6588
       0    6590    6591    6592    6593    6594    6595    6596    6597    6598
    6599    6600    6601    6602    6603    6604    6591    6592    6593    6594
    6595    6596    6597    6598    6599    6600    6605    6606    6607    6592
    6593    6594    6595    6596    6597    6598    6600    6601    6602    6603
    6607    6608    6593    6594    6595    6596    6597    6598    6603    6604
    6608    6609    6610    6594    6595    6599    6600    6601    6605    6606
    6607    6611    6612    6613    6599    6600    6596    6599    6600    6601
    6602    6603    6607    6611    6613    6597    6600    6601    6602    6603
    6604    6608    6614    6615    6598    6602    6603    6604    6608    6609
    6610    6614    6615    6616    6603    6604    6600    6605    6606    6607
    6611    6612    6617    6601    6605    6606    6607    6611    6613    6617
    6607    6603    6608    6604    6608    6609    6610    6614    6615    6618
    6608    6609    6610    6615    6616    6618    6619    6620    6606    6607
    6611    6612    6613    6617    6611    6612    6611    6612    6613    6617
    6609    6614    6615    6616    6618    6621    6622    6610    6614    6615
    6616    6618    6619    6620    6621    6622    6623    6615    6616    6612
    6613    6617    6617    6617    6615    6618    6616    6618    6619    6620
    6621    6622    6624    6618    6619    6620    6621    6623    6624       0
    6619    6621    6622    6623    6624    6620    6621    6622    6623    6624
    6621    6623    6622    6623    6624    6624    6624       0    6626    6627
    6628    6629    6630    6631    6632    6633    6634    6635    6636    6637
    6638    6639    6640    6627    6628    6629    6630    6631    6632    6633
    6634    6635    6636    6641    6642    6643    6628    6629    6630    6631
    6632    6633    6634    6636    6637    6638    6639    6643    6644    6629
    6630    6631    6632    6633    6634    6639    6640    6644    6645    6646
    6630    6631    6635    6636    6637    6641    6642    6643    6647    6648
    6649    6635    6636    6632    6635    6636    6637    6638    6639    6643
    6647    6649    6633    6636    6637    6638    6639    6640    6644    6650
    6651    6634    6638    6639    6640    6644    6645    6646    6650    6651
    6652    6639    6640    6636    6641    6642    6643    6647    6648    6653
    6637    6641    6642    6643    6647    6649    6653    6643    6639    6644
    6640    6644    6645    6646    6650    6651    6654    6644    6645    6646
    6651    6652    6654    6655    6656    6642    6643    6647    6648    6649
    6653    6647    6648    6647    6648    6649    6653    6645    6650    6651
    6652    6654    6657    6658    6646    6650    6651    6652    6654    6655
    6656    6657    6658    6659    6651    6652    6648    6649    6653    6653
    6653    6651    6654    6652    6654    6655    6656    6657    6658    6660
    6654    6655    6656    6657    6659    6660       0    6655    6657    6658
    6659    6660    6656    6657    6658    6659    6660    6657    6659    6658
    6659    6660    6660    6660       0    6662    6663    6664    6665    6666
    6667    6668    6669    6670    6671    6672    6673    6674    6675    6676
    6663    6664    6665    6666    6667    6668    6669    6670    6671    6672
    6677    6678    6679    6664    6665    6666    6667    6668    6669    6670
    6672    6673    6674    6675    6679    6680    6665    6666    6667    6668
    6669    6670    6675    6676    6680    6681    6682    6666    6667    6671
    6672    6673    6677    6678    6679    6683    6684    6685    6671    6672
    6668    6671    6672    6673    6674    6675    6679    6683    6685    6669
    6672    6673    6674    6675    6676    6680    6686    6687    6670    6674
    6675    6676    6680    6681    6682    6686    6687    6688    6675    6676
    6672    6677    6678    6679    6683    6684    6689    6673    6677    6678
    6679    6683    6685    6689    6679    6675    6680    6676    6680    6681
    6682    6686    6687    6690    6680    6681    6682    6687    6688    6690
    6691    6692    6678    6679    6683    6684    6685    6689    6683    6684
    6683    6684    6685    6689    6681    6686    6687    6688    6690    6693
    6694    6682    6686    6687    6688    6690    6691    6692    6693    6694
    6695    6687    6688    6684    6685    6689    6689    6689    6687    6690
    6688    6690    6691    6692    6693    6694    6696    6690    6691    6692
    6693    6695    6696       0    6691    6693    6694    6695    6696    6692
    6693    6694    6695    6696    6693    6695    6694    6695    6696    6696
    6696       0    6698    6699    6700    6701    6702    6703    6704    6705
    6706    6707    6708    6709    6710    6711    6712    6699    6700    6701
    6702    6703    6704    6705    6706    6707    6708    6713    6714    6715
    6700    6701    6702    6703    6704    6705    6706    6708    6709    6710
    6711    6715    6716    6701    6702    6703    6704    6705    6706    6711
    6712    6716    6717    6718    6702    6703    6707    6708    6709    6713
    6714    6715    6719    6720    6721    6707    6708    6704    6707    6708
    6709    6710    6711    6715    6719    6721    6705    6708    6709    6710
    6711    6712    6716    6722    6723    6706    6710    6711    6712    6716
    6717    6718    6722    6723    6724    6711    6712    6708    6713    6714
    6715    6719    6720    6725    6709    6713    6714    6715    6719    6721
    6725    6715    6711    6716    6712    6716    6717    6718    6722    6723
    6726    6716    6717    6718    6723    6724    6726    6727    6728    6714
    6715    6719    6720    6721    6725    6719    6720    6719    6720    6721
    6725    6717    6722    6723    6724    6726    6729    6730    6718    6722
    6723    6724    6726    6727    6728    6729    6730    6731    6723    6724
    6720    6721    6725    6725    6725    6723    6726    6724    6726    6727
    6728    6729    6730    6732    6726    6727    6728    6729    6731    6732
       0    6727    6729    6730    6731    6732    6728    6729    6730    6731
    6732    6729    6731    6730    6731    6732    6732    6732       0    6734
    6735    6736    6737    6738    6739    6740    6741    6742    6743    6744
    6745    6746    6747    6748    6735    6736    6737    6738    6739    6740
    6741    6742    6743    6744    6749    6750    6751    6736    6737    6738
    6739    6740    6741    6742    6744    6745    6746    6747    6751    6752
    6737    6738    6739    6740    6741    6742    6747    6748    6752    6753
    6754    6738    6739    6743    6744    6745    6749    6750    6751    6755
    6756    6757    6743    6744    6740    6743    6744    6745    6746    6747
    6751    6755    6757    6741    6744    6745    6746    6747    6748    6752
    6758    6759    6742    6746    6747    6748    6752    6753    6754    6758
    6759    6760    6747    6748    6744    6749    6750    6751    6755    6756
    6761    6745    6749    6750    6751    6755    6757    6761    6751    6747
    6752    6748    6752    6753    6754    6758    6759    6762    6752    6753
    6754    6759    6760    6762    6763    6764    6750    6751    6755    6756
    6757    6761    6755    6756    6755    6756    6757    6761    6753    6758
    6759    6760    6762    6765    6766    6754    6758    6759    6760    6762
    6763    6764    6765    6766    6767    6759    6760    6756    6757    6761
    6761    6761    6759    6762    6760    6762    6763    6764    6765    6766
    6768    6762    6763    6764    6765    6767    6768       0    6763    6765
    6766    6767    6768    6764    6765    6766    6767    6768    6765    6767
    6766    6767    6768    6768    6768       0    6770    6771    6772    6773
    6774    6775    6776    6777    6778    6779    6780    6781    6782    6783
    6784    6771    6772    6773    6774    6775    6776    6777    6778    6779
    6780    6785    6786    6787    6772    6773    6774    6775    6776    6777
    6778    6780    6781    6782    6783    6787    6788    6773    6774    6775
    6776    6777    6778    6783    6784    6788    6789    6790    6774    6775
    6779    6780    6781    6785    6786    6787    6791    6792    6793    6779
    6780    6776    6779    6780    6781    6782    6783    6787    6791    6793
    6777    6780    6781    6782    6783    6784    6788    6794    6795    6778
    6782    6783    6784    6788    6789    6790    6794    6795    6796    6783
    6784    6780    6785    6786    6787    6791    6792    6797    6781    6785
    6786    6787    6791    6793    6797    6787    6783    6788    6784    6788
    6789    6790    6794    6795    6798    6788    6789    6790    6795    6796
    6798    6799    6800    6786    6787    6791    6792    6793    6797    6791
    6792    6791    6792    6793    6797    6789    6794    6795    6796    6798
    6801    6802    6790    6794    6795    6796    6798    6799    6800    6801
    6802    6803    6795    6796    6792    6793    6797    6797    6797    6795
    6798    6796    6798    6799    6800    6801    6802    6804    6798    6799
    6800    6801    6803    6804       0    6799    6801    6802    6803    6804
    6800    6801    6802    6803    6804    6801    6803    6802    6803    6804
    6804    6804       0    6806    6807    6808    6809    6810    6811    6812
    6813    6814    6815    6816    6817    6818    6819    6820    6807    6808
    6809    6810    6811    6812    6813    6814    6815    6816    6821    6822
    6823    6808    6809    6810    6811    6812    6813    6814    6816    6817
    6818    6819    6823    6824    6809    6810    6811    6812    6813    6814
    6819    6820    6824    6825    6826    6810    6811    6815    6816    6817
    6821    6822    6823    6827    6828    6829    6815    6816    6812    6815
    6816    6817    6818    6819    6823    6827    6829    6813    6816    6817
    6818    6819    6820    6824    6830    6831    6814    6818    6819    6820
    6824    6825    6826    6830    6831    6832    6819    6820    6816    6821
    6822    6823    6827    6828    6833    6817    6821    6822    6823    6827
    6829    6833    6823    6819    6824    6820    6824    6825    6826    6830
    6831    6834    6824    6825    6826    6831    6832    6834    6835    6836
    6822    6823    6827    6828    6829    6833    6827    6828    6827    6828
    6829    6833    6825    6830    6831    6832    6834    6837    6838    6826
    6830    6831    6832    6834    6835    6836    6837    6838    6839    6831
    6832    6828    6829    6833    6833    6833    6831    6834    6832    6834
    6835    6836    6837    6838    6840    6834    6835    6836    6837    6839
    6840       0    6835    6837    6838    6839    6840    6836    6837    6838
    6839    6840    6837    6839    6838    6839    6840    6840    6840       0
    6842    6843    6844    6845    6846    6847    6848    6849    6850    6851
    6852    6853    6854    6855    6856    6843    6844    6845    6846    6847
    6848    6849    6850    6851    6852    6857    6858    6859    6844    6845
    6846    6847    6848    6849    6850    6852    6853    6854    6855    6859
    6860    6845    6846    6847    6848    6849    6850    6855    6856    6860
    6861    6862    6846    6847    6851    6852    6853    6857    6858    6859
    6863    6864    6865    6851    6852    6848    6851    6852    6853    6854
    6855    6859    6863    6865    6849    6852    6853    6854    6855    6856
    6860    6866    6867    6850    6854    6855    6856    6860    6861    6862
    6866    6867    6868    6855    6856    6852    6857    6858    6859    6863
    6864    6869    6853    6857    6858    6859    6863    6865    6869    6859
    6855    6860    6856    6860    6861    6862    6866    6867    6870    6860
    6861    6862    6867    6868    6870    6871    6872    6858    6859    6863
    6864    6865    6869    6863    6864    6863    6864    6865    6869    6861
    6866    6867    6868    6870    6873    6874    6862    6866    6867    6868
    6870    6871    6872    6873    6874    6875    6867    6868    6864    6865
    6869    6869    6869    6867    6870    6868    6870    6871    6872    6873
    6874    6876    6870    6871    6872    6873    6875    6876       0    6871
    6873    6874    6875    6876    6872    6873    6874    6875    6876    6873
    6875    6874    6875    6876    6876    6876       0    6878    6879    6880
    6881    6882    6883    6884    6885    6886    6887    6888    6889    6890
    6891    6892    6879    6880    6881    6882    6883    6884    6885    6886
    6887    6888    6893    6894    6895    6880    6881    6882    6883    6884
    6885    6886    6888    6889    6890    6891    6895    6896    6881    6882
    6883    6884    6885    6886    6891    6892    6896    6897    6898    6882
    6883    6887    6888    6889    6893    6894    6895    6899    6900    6901
    6887    6888    6884    6887    6888    6889    6890    6891    6895    6899
    6901    6885    6888    6889    6890    6891    6892    6896    6902    6903
    6886    6890    6891    6892    6896    6897    6898    6902    6903    6904
    6891    6892    6888    6893    6894    6895    6899    6900    6905    6889
    6893    6894    6895    6899    6901    6905    6895    6891    6896    6892
    6896    6897    6898    6902    6903    6906    6896    6897    6898    6903
    6904    6906    6907    6908    6894    6895    6899    6900    6901    6905
    6899    6900    6899    6900    6901    6905    6897    6902    6903    6904
    6906    6909    6910    6898    6902    6903    6904    6906    6907    6908
    6909    6910    6911    6903    6904    6900    6901    6905    6905    6905
    6903    6906    6904    6906    6907    6908    6909    6910    6912    6906
    6907    6908    6909    6911    6912       0    6907    6909    6910    6911
    6912    6908    6909    6910    6911    6912    6909    6911    6910    6911
    6912    6912    6912       0    6914    6915    6916    6917    6918    6919
    6920    6921    6922    6923    6924    6925    6926    6927    6928    6915
    6916    6917    6918    6919    6920    6921    6922    6923    6924    6929
    6930    6931    6916    6917    6918    6919    6920    6921    6922    6924
    6925    6926    6927    6931    6932    6917    6918    6919    6920    6921
    6922    6927    6928    6932    6933    6934    6918    6919    6923    6924
    6925    6929    6930    6931    6935    6936    6937    6923    6924    6920
    6923    6924    6925    6926    6927    6931    6935    6937    6921    6924
    6925    6926    6927    6928    6932    6938    6939    6922    6926    6927
    6928    6932    6933    6934    6938    6939    6940    6927    6928    6924
    6929    6930    6931    6935    6936    6941    6925    6929    6930    6931
    6935    6937    6941    6931    6927    6932    6928    6932    6933    6934
    6938    6939    6942    6932    6933    6934    6939    6940    6942    6943
    6944    6930    6931    6935    6936    6937    6941    6935    6936    6935
    6936    6937    6941    6933    6938    6939    6940    6942    6945    6946
    6934    6938    6939    6940    6942    6943    6944    6945    6946    6947
    6939    6940    6936    6937    6941    6941    6941    6939    6942    6940
    6942    6943    6944    6945    6946    6948    6942    6943    6944    6945
    6947    6948       0    6943    6945    6946    6947    6948    6944    6945
    6946    6947    6948    6945    6947    6946    6947    6948    6948    6948
       0    6950    6951    6952    6953    6954    6955    6956    6957    6958
    6959    6960    6961    6962    6963    6964    6951    6952    6953    6954
    6955    6956    6957    6958    6959    6960    6965    6966    6967    6952
    6953    6954    6955    6956    6957    6958    6960    6961    6962    6963
    6967    6968    6953    6954    6955    6956    6957    6958    6963    6964
    6968    6969    6970    6954    6955    6959    6960    6961    6965    6966
    6967    6971    6972    6973    6959    6960    6956    6959    6960    6961
    6962    6963    6967    6971    6973    6957    6960    6961    6962    6963
    6964    6968    6974    6975    6958    6962    6963    6964    6968    6969
    6970    6974    6975    6976    6963    6964    6960    6965    6966    6967
    6971    6972    6977    6961    6965    6966    6967    6971    6973    6977
    6967    6963    6968    6964    6968    6969    6970    6974    6975    6978
    6968    6969    6970    6975    6976    6978    6979    6980    6966    6967
    6971    6972    6973    6977    6971    6972    6971    6972    6973    6977
    6969    6974    6975    6976    6978    6981    6982    6970    6974    6975
    6976    6978    6979    6980    6981    6982    6983    6975    6976    6972
    6973    6977    6977    6977    6975    6978    6976    6978    6979    6980
    6981    6982    6984    6978    6979    6980    6981    6983    6984       0
    6979    6981    6982    6983    6984    6980    6981    6982    6983    6984
    6981    6983    6982    6983    6984    6984    6984       0    6986    6987
    6988    6989    6990    6991    6992    6993    6994    6995    6996    6997
    6998    6999    7000    6987    6988    6989    6990    6991    6992    6993
    6994    6995    6996    7001    7002    7003    6988    6989    6990    6991
    6992    6993    6994    6996    6997    6998    6999    7003    7004    6989
    6990    6991    6992    6993    6994    6999    7000    7004    7005    7006
    6990    6991    6995    6996    6997    7001    7002    7003    7007    7008
    7009    6995    6996    6992    6995    6996    6997    6998    6999    7003
    7007    7009    6993    6996    6997    6998    6999    7000    7004    7010
    7011    6994    6998    6999    7000    7004    7005    7006    7010    7011
    7012    6999    7000    6996    7001    7002    7003    7007    7008    7013
    6997    7001    7002    7003    7007    7009    7013    7003    6999    7004
    7000    7004    7005    7006    7010    7011    7014    7004    7005    7006
    7011    7012    7014    7015    7016    7002    7003    7007    7008    7009
    7013    7007    7008    7007    7008    7009    7013    7005    7010    7011
    7012    7014    7017    7018    7006    7010    7011    7012    7014    7015
    7016    7017    7018    7019    7011    7012    7008    7009    7013    7013
    7013    7011    7014    7012    7014    7015    7016    7017    7018    7020
    7014    7015    7016    7017    7019    7020       0    7015    7017    7018
    7019    7020    7016    7017    7018    7019    7020    7017    7019    7018
    7019    7020    7020    7020       0    7022    7023    7024    7025    7026
    7027    7028    7029    7030    7031    7032    7033    7034    7035    7036
    7023    7024    7025    7026    7027    7028    7029    7030    7031    7032
    7037    7038    7039    7024    7025    7026    7027    7028    7029    7030
    7032    7033    7034    7035    7039    7040    7025    7026    7027    7028
    7029    7030    7035    7036    7040    7041    7042    7026    7027    7031
    7032    7033    7037    7038    7039    7043    7044    7045    7031    7032
    7028    7031    7032    7033    7034    7035    7039    7043    7045    7029
    7032    7033    7034    7035    7036    7040    7046    7047    7030    7034
    7035    7036    7040    7041    7042    7046    7047    7048    7035    7036
    7032    7037    7038    7039    7043    7044    7049    7033    7037    7038
    7039    7043    7045    7049    7039    7035    7040    7036    7040    7041
    7042    7046    7047    7050    7040    7041    7042    7047    7048    7050
    7051    7052    7038    7039    7043    7044    7045    7049    7043    7044
    7043    7044    7045    7049    7041    7046    7047    7048    7050    7053
    7054    7042    7046    7047    7048    7050    7051    7052    7053    7054
    7055    7047    7048    7044    7045    7049    7049    7049    7047    7050
    7048    7050    7051    7052    7053    7054    7056    7050    7051    7052
    7053    7055    7056       0    7051    7053    7054    7055    7056    7052
    7053    7054    7055    7056    7053    7055    7054    7055    7056    7056
    7056       0    7058    7059    7060    7061    7062    7063    7064    7065
    7066    7067    7068    7069    7070    7071    7072    7059    7060    7061
    7062    7063    7064    7065    7066    7067    7068    7073    7074    7075
    7060    7061    7062    7063    7064    7065    7066    7068    7069    7070
    7071    7075    7076    7061    7062    7063    7064    7065    7066    7071
    7072    7076    7077    7078    7062    7063    7067    7068    7069    7073
    7074    7075    7079    7080    7081    7067    7068    7064    7067    7068
    7069    7070    7071    7075    7079    7081    7065    7068    7069    7070
    7071    7072    7076    7082    7083    7066    7070    7071    7072    7076
    7077    7078    7082    7083    7084    7071    7072    7068    7073    7074
    7075    7079    7080    7085    7069    7073    7074    7075    7079    7081
    7085    7075    7071    7076    7072    7076    7077    7078    7082    7083
    7086    7076    7077    7078    7083    7084    7086    7087    7088    7074
    7075    7079    7080    7081    7085    7079    7080    7079    7080    7081
    7085    7077    7082    7083    7084    7086    7089    7090    7078    7082
    7083    7084    7086    7087    7088    7089    7090    7091    7083    7084
    7080    7081    7085    7085    7085    7083    7086    7084    7086    7087
    7088    7089    7090    7092    7086    7087    7088    7089    7091    7092
       0    7087    7089    7090    7091    7092    7088    7089    7090    7091
    7092    7089    7091    7090    7091    7092    7092    7092       0    7094
    7095    7096    7097    7098    7099    7100    7101    7102    7103    7104
    7105    7106    7107    7108    7095    7096    7097    7098    7099    7100
    7101    7102    7103    7104    7109    7110    7111    7096    7097    7098
    7099    7100    7101    7102    7104    7105    7106    7107    7111    7112
    7097    7098    7099    7100    7101    7102    7107    7108    7112    7113
    7114    7098    7099    7103    7104    7105    7109    7110    7111    7115
    7116    7117    7103    7104    7100    7103    7104    7105    7106    7107
    7111    7115    7117    7101    7104    7105    7106    7107    7108    7112
    7118    7119    7102    7106    7107    7108    7112    7113    7114    7118
    7119    7120    7107    7108    7104    7109    7110    7111    7115    7116
    7121    7105    7109    7110    7111    7115    7117    7121    7111    7107
    7112    7108    7112    7113    7114    7118    7119    7122    7112    7113
    7114    7119    7120    7122    7123    7124    7110    7111    7115    7116
    7117    7121    7115    7116    7115    7116    7117    7121    7113    7118
    7119    7120    7122    7125    7126    7114    7118    7119    7120    7122
    7123    7124    7125    7126    7127    7119    7120    7116    7117    7121
    7121    7121    7119    7122    7120    7122    7123    7124    7125    7126
    7128    7122    7123    7124    7125    7127    7128       0    7123    7125
    7126    7127    7128    7124    7125    7126    7127    7128    7125    7127
    7126    7127    7128    7128    7128       0    7130    7131    7132    7133
    7134    7135    7136    7137    7138    7139    7140    7141    7142    7143
    7144    7131    7132    7133    7134    7135    7136    7137    7138    7139
    7140    7145    7146    7147    7132    7133    7134    7135    7136    7137
    7138    7140    7141    7142    7143    7147    7148    7133    7134    7135
    7136    7137    7138    7143    7144    7148    7149    7150    7134    7135
    7139    7140    7141    7145    7146    7147    7151    7152    7153    7139
    7140    7136    7139    7140    7141    7142    7143    7147    7151    7153
    7137    7140    7141    7142    7143    7144    7148    7154    7155    7138
    7142    7143    7144    7148    7149    7150    7154    7155    7156    7143
    7144    7140    7145    7146    7147    7151    7152    7157    7141    7145
    7146    7147    7151    7153    7157    7147    7143    7148    7144    7148
    7149    7150    7154    7155    7158    7148    7149    7150    7155    7156
    7158    7159    7160    7146    7147    7151    7152    7153    7157    7151
    7152    7151    7152    7153    7157    7149    7154    7155    7156    7158
    7161    7162    7150    7154    7155    7156    7158    7159    7160    7161
    7162    7163    7155    7156    7152    7153    7157    7157    7157    7155
    7158    7156    7158    7159    7160    7161    7162    7164    7158    7159
    7160    7161    7163    7164       0    7159    7161    7162    7163    7164
    7160    7161    7162    7163    7164    7161    7163    7162    7163    7164
    7164    7164       0    7166    7167    7168    7169    7170    7171    7172
    7173    7174    7175    7176    7177    7178    7179    7180    7167    7168
    7169    7170    7171    7172    7173    7174    7175    7176    7181    7182
    7183    7168    7169    7170    7171    7172    7173    7174    7176    7177
    7178    7179    7183    7184    7169    7170    7171    7172    7173    7174
    7179    7180    7184    7185    7186    7170    7171    7175    7176    7177
    7181    7182    7183    7187    7188    7189    7175    7176    7172    7175
    7176    7177    7178    7179    7183    7187    7189    7173    7176    7177
    7178    7179    7180    7184    7190    7191    7174    7178    7179    7180
    7184    7185    7186    7190    7191    7192    7179    7180    7176    7181
    7182    7183    7187    7188    7193    7177    7181    7182    7183    7187
    7189    7193    7183    7179    7184    7180    7184    7185    7186    7190
    7191    7194    7184    7185    7186    7191    7192    7194    7195    7196
    7182    7183    7187    7188    7189    7193    7187    7188    7187    7188
    7189    7193    7185    7190    7191    7192    7194    7197    7198    7186
    7190    7191    7192    7194    7195    7196    7197    7198    7199    7191
    7192    7188    7189    7193    7193    7193    7191    7194    7192    7194
    7195    7196    7197    7198    7200    7194    7195    7196    7197    7199
    7200       0    7195    7197    7198    7199    7200    7196    7197    7198
    7199    7200    7197    7199    7198    7199    7200    7200    7200       0
    7202    7203    7204    7205    7206    7207    7208    7209    7210    7211
    7212    7213    7214    7215    7216    7203    7204    7205    7206    7207
    7208    7209    7210    7211    7212    7217    7218    7219    7204    7205
    7206    7207    7208    7209    7210    7212    7213    7214    7215    7219
    7220    7205    7206    7207    7208    7209    7210    7215    7216    7220
    7221    7222    7206    7207    7211    7212    7213    7217    7218    7219
    7223    7224    7225    7211    7212    7208    7211    7212    7213    7214
    7215    7219    7223    7225    7209    7212    7213    7214    7215    7216
    7220    7226    7227    7210    7214    7215    7216    7220    7221    7222
    7226    7227    7228    7215    7216    7212    7217    7218    7219    7223
    7224    7229    7213    7217    7218    7219    7223    7225    7229    7219
    7215    7220    7216    7220    7221    7222    7226    7227    7230    7220
    7221    7222    7227    7228    7230    7231    7232    7218    7219    7223
    7224    7225    7229    7223    7224    7223    7224    7225    7229    7221
    7226    7227    7228    7230    7233    7234    7222    7226    7227    7228
    7230    7231    7232    7233    7234    7235    7227    7228    7224    7225
    7229    7229    7229    7227    7230    7228    7230    7231    7232    7233
    7234    7236    7230    7231    7232    7233    7235    7236       0    7231
    7233    7234    7235    7236    7232    7233    7234    7235    7236    7233
    7235    7234    7235    7236    7236    7236       0    7238    7239    7240
    7241    7242    7243    7244    7245    7246    7247    7248    7249    7250
    7251    7252    7239    7240    7241    7242    7243    7244    7245    7246
    7247    7248    7253    7254    7255    7240    7241    7242    7243    7244
    7245    7246    7248    7249    7250    7251    7255    7256    7241    7242
    7243    7244    7245    7246    7251    7252    7256    7257    7258    7242
    7243    7247    7248    7249    7253    7254    7255    7259    7260    7261
    7247    7248    7244    7247    7248    7249    7250    7251    7255    7259
    7261    7245    7248    7249    7250    7251    7252    7256    7262    7263
    7246    7250    7251    7252    7256    7257    7258    7262    7263    7264
    7251    7252    7248    7253    7254    7255    7259    7260    7265    7249
    7253    7254    7255    7259    7261    7265    7255    7251    7256    7252
    7256    7257    7258    7262    7263    7266    7256    7257    7258    7263
    7264    7266    7267    7268    7254    7255    7259    7260    7261    7265
    7259    7260    7259    7260    7261    7265    7257    7262    7263    7264
    7266    7269    7270    7258    7262    7263    7264    7266    7267    7268
    7269    7270    7271    7263    7264    7260    7261    7265    7265    7265
    7263    7266    7264    7266    7267    7268    7269    7270    7272    7266
    7267    7268    7269    7271    7272       0    7267    7269    7270    7271
    7272    7268    7269    7270    7271    7272    7269    7271    7270    7271
    7272    7272    7272       0    7274    7275    7276    7277    7278    7279
    7280    7281    7282    7283    7284    7285    7286    7287    7288    7275
    7276    7277    7278    7279    7280    7281    7282    7283    7284    7289
    7290    7291    7276    7277    7278    7279    7280    7281    7282    7284
    7285    7286    7287    7291    7292    7277    7278    7279    7280    7281
    7282    7287    7288    7292    7293    7294    7278    7279    7283    7284
    7285    7289    7290    7291    7295    7296    7297    7283    7284    7280
    7283    7284    7285    7286    7287    7291    7295    7297    7281    7284
    7285    7286    7287    7288    7292    7298    7299    7282    7286    7287
    7288    7292    7293    7294    7298    7299    7300    7287    7288    7284
    7289    7290    7291    7295    7296    7301    7285    7289    7290    7291
    7295    7297    7301    7291    7287    7292    7288    7292    7293    7294
    7298    7299    7302    7292    7293    7294    7299    7300    7302    7303
    7304    7290    7291    7295    7296    7297    7301    7295    7296    7295
    7296    7297    7301    7293    7298    7299    7300    7302    7305    7306
    7294    7298    7299    7300    7302    7303    7304    7305    7306    7307
    7299    7300    7296    7297    7301    7301    7301    7299    7302    7300
    7302    7303    7304    7305    7306    7308    7302    7303    7304    7305
    7307    7308       0    7303    7305    7306    7307    7308    7304    7305
    7306    7307    7308    7305    7307    7306    7307    7308    7308    7308
       0    7310    7311    7312    7313    7314    7315    7316    7317    7318
    7319    7320    7321    7322    7323    7324    7311    7312    7313    7314
    7315    7316    7317    7318    7319    7320    7325    7326    7327    7312
    7313    7314    7315    7316    7317    7318    7320    7321    7322    7323
    7327    7328    7313    7314    7315    7316    7317    7318    7323    7324
    7328    7329    7330    7314    7315    7319    7320    7321    7325    7326
    7327    7331    7332    7333    7319    7320    7316    7319    7320    7321
    7322    7323    7327    7331    7333    7317    7320    7321    7322    7323
    7324    7328    7334    7335    7318    7322    7323    7324    7328    7329
    7330    7334    7335    7336    7323    7324    7320    7325    7326    7327
    7331    7332    7337    7321    7325    7326    7327    7331    7333    7337
    7327    7323    7328    7324    7328    7329    7330    7334    7335    7338
    7328    7329    7330    7335    7336    7338    7339    7340    7326    7327
    7331    7332    7333    7337    7331    7332    7331    7332    7333    7337
    7329    7334    7335    7336    7338    7341    7342    7330    7334    7335
    7336    7338    7339    7340    7341    7342    7343    7335    7336    7332
    7333    7337    7337    7337    7335    7338    7336    7338    7339    7340
    7341    7342    7344    7338    7339    7340    7341    7343    7344       0
    7339    7341    7342    7343    7344    7340    7341    7342    7343    7344
    7341    7343    7342    7343    7344    7344    7344       0    7346    7347
    7348    7349    7350    7351    7352    7353    7354    7355    7356    7357
    7358    7359    7360    7347    7348    7349    7350    7351    7352    7353
    7354    7355    7356    7361    7362    7363    7348    7349    7350    7351
    7352    7353    7354    7356    7357    7358    7359    7363    7364    7349
    7350    7351    7352    7353    7354    7359    7360    7364    7365    7366
    7350    7351    7355    7356    7357    7361    7362    7363    7367    7368
    7369    7355    7356    7352    7355    7356    7357    7358    7359    7363
    7367    7369    7353    7356    7357    7358    7359    7360    7364    7370
    7371    7354    7358    7359    7360    7364    7365    7366    7370    7371
    7372    7359    7360    7356    7361    7362    7363    7367    7368    7373
    7357    7361    7362    7363    7367    7369    7373    7363    7359    7364
    7360    7364    7365    7366    7370    7371    7374    7364    7365    7366
    7371    7372    7374    7375    7376    7362    7363    7367    7368    7369
    7373    7367    7368    7367    7368    7369    7373    7365    7370    7371
    7372    7374    7377    7378    7366    7370    7371    7372    7374    7375
    7376    7377    7378    7379    7371    7372    7368    7369    7373    7373
    7373    7371    7374    7372    7374    7375    7376    7377    7378    7380
    7374    7375    7376    7377    7379    7380       0    7375    7377    7378
    7379    7380    7376    7377    7378    7379    7380    7377    7379    7378
    7379    7380    7380    7380       0    7382    7383    7384    7385    7386
    7387    7388    7389    7390    7391    7392    7393    7394    7395    7396
    7383    7384    7385    7386    7387    7388    7389    7390    7391    7392
    7397    7398    7399    7384    7385    7386    7387    7388    7389    7390
    7392    7393    7394    7395    7399    7400    7385    7386    7387    7388
    7389    7390    7395    7396    7400    7401    7402    7386    7387    7391
    7392    7393    7397    7398    7399    7403    7404    7405    7391    7392
    7388    7391    7392    7393    7394    7395    7399    7403    7405    7389
    7392    7393    7394    7395    7396    7400    7406    7407    7390    7394
    7395    7396    7400    7401    7402    7406    7407    7408    7395    7396
    7392    7397    7398    7399    7403    7404    7409    7393    7397    7398
    7399    7403    7405    7409    7399    7395    7400    7396    7400    7401
    7402    7406    7407    7410    7400    7401    7402    7407    7408    7410
    7411    7412    7398    7399    7403    7404    7405    7409    7403    7404
    7403    7404    7405    7409    7401    7406    7407    7408    7410    7413
    7414    7402    7406    7407    7408    7410    7411    7412    7413    7414
    7415    7407    7408    7404    7405    7409    7409    7409    7407    7410
    7408    7410    7411    7412    7413    7414    7416    7410    7411    7412
    7413    7415    7416       0    7411    7413    7414    7415    7416    7412
    7413    7414    7415    7416    7413    7415    7414    7415    7416    7416
    7416       0    7418    7419    7420    7421    7422    7423    7424    7425
    7426    7427    7428    7429    7430    7431    7432    7419    7420    7421
    7422    7423    7424    7425    7426    7427    7428    7433    7434    7435
    7420    7421    7422    7423    7424    7425    7426    7428    7429    7430
    7431    7435    7436    7421    7422    7423    7424    7425    7426    7431
    7432    7436    7437    7438    7422    7423    7427    7428    7429    7433
    7434    7435    7439    7440    7441    7427    7428    7424    7427    7428
    7429    7430    7431    7435    7439    7441    7425    7428    7429    7430
    7431    7432    7436    7442    7443    7426    7430    7431    7432    7436
    7437    7438    7442    7443    7444    7431    7432    7428    7433    7434
    7435    7439    7440    7445    7429    7433    7434    7435    7439    7441
    7445    7435    7431    7436    7432    7436    7437    7438    7442    7443
    7446    7436    7437    7438    7443    7444    7446    7447    7448    7434
    7435    7439    7440    7441    7445    7439    7440    7439    7440    7441
    7445    7437    7442    7443    7444    7446    7449    7450    7438    7442
    7443    7444    7446    7447    7448    7449    7450    7451    7443    7444
    7440    7441    7445    7445    7445    7443    7446    7444    7446    7447
    7448    7449    7450    7452    7446    7447    7448    7449    7451    7452
       0    7447    7449    7450    7451    7452    7448    7449    7450    7451
    7452    7449    7451    7450    7451    7452    7452    7452       0    7454
    7455    7456    7457    7458    7459    7460    7461    7462    7463    7464
    7465    7466    7467    7468    7455    7456    7457    7458    7459    7460
    7461    7462    7463    7464    7469    7470    7471    7456    7457    7458
    7459    7460    7461    7462    7464    7465    7466    7467    7471    7472
    7457    7458    7459    7460    7461    7462    7467    7468    7472    7473
    7474    7458    7459    7463    7464    7465    7469    7470    7471    7475
    7476    7477    7463    7464    7460    7463    7464    7465    7466    7467
    7471    7475    7477    7461    7464    7465    7466    7467    7468    7472
    7478    7479    7462    7466    7467    7468    7472    7473    7474    7478
    7479    7480    7467    7468    7464    7469    7470    7471    7475    7476
    7481    7465    7469    7470    7471    7475    7477    7481    7471    7467
    7472    7468    7472    7473    7474    7478    7479    7482    7472    7473
    7474    7479    7480    7482    7483    7484    7470    7471    7475    7476
    7477    7481    7475    7476    7475    7476    7477    7481    7473    7478
    7479    7480    7482    7485    7486    7474    7478    7479    7480    7482
    7483    7484    7485    7486    7487    7479    7480    7476    7477    7481
    7481    7481    7479    7482    7480    7482    7483    7484    7485    7486
    7488    7482    7483    7484    7485    7487    7488       0    7483    7485
    7486    7487    7488    7484    7485    7486    7487    7488    7485    7487
    7486    7487    7488    7488    7488       0    7490    7491    7492    7493
    7494    7495    7496    7497    7498    7499    7500    7501    7502    7503
    7504    7491    7492    7493    7494    7495    7496    7497    7498    7499
    7500    7505    7506    7507    7492    7493    7494    7495    7496    7497
    7498    7500    7501    7502    7503    7507    7508    7493    7494    7495
    7496    7497    7498    7503    7504    7508    7509    7510    7494    7495
    7499    7500    7501    7505    7506    7507    7511    7512    7513    7499
    7500    7496    7499    7500    7501    7502    7503    7507    7511    7513
    7497    7500    7501    7502    7503    7504    7508    7514    7515    7498
    7502    7503    7504    7508    7509    7510    7514    7515    7516    7503
    7504    7500    7505    7506    7507    7511    7512    7517    7501    7505
    7506    7507    7511    7513    7517    7507    7503    7508    7504    7508
    7509    7510    7514    7515    7518    7508    7509    7510    7515    7516
    7518    7519    7520    7506    7507    7511    7512    7513    7517    7511
    7512    7511    7512    7513    7517    7509    7514    7515    7516    7518
    7521    7522    7510    7514    7515    7516    7518    7519    7520    7521
    7522    7523    7515    7516    7512    7513    7517    7517    7517    7515
    7518    7516    7518    7519    7520    7521    7522    7524    7518    7519
    7520    7521    7523    7524       0    7519    7521    7522    7523    7524
    7520    7521    7522    7523    7524    7521    7523    7522    7523    7524
    7524    7524       0    7526    7527    7528    7529    7530    7531    7532
    7533    7534    7535    7536    7537    7538    7539    7540    7527    7528
    7529    7530    7531    7532    7533    7534    7535    7536    7541    7542
    7543    7528    7529    7530    7531    7532    7533    7534    7536    7537
    7538    7539    7543    7544    7529    7530    7531    7532    7533    7534
    7539    7540    7544    7545    7546    7530    7531    7535    7536    7537
    7541    7542    7543    7547    7548    7549    7535    7536    7532    7535
    7536    7537    7538    7539    7543    7547    7549    7533    7536    7537
    7538    7539    7540    7544    7550    7551    7534    7538    7539    7540
    7544    7545    7546    7550    7551    7552    7539    7540    7536    7541
    7542    7543    7547    7548    7553    7537    7541    7542    7543    7547
    7549    7553    7543    7539    7544    7540    7544    7545    7546    7550
    7551    7554    7544    7545    7546    7551    7552    7554    7555    7556
    7542    7543    7547    7548    7549    7553    7547    7548    7547    7548
    7549    7553    7545    7550    7551    7552    7554    7557    7558    7546
    7550    7551    7552    7554    7555    7556    7557    7558    7559    7551
    7552    7548    7549    7553    7553    7553    7551    7554    7552    7554
    7555    7556    7557    7558    7560    7554    7555    7556    7557    7559
    7560       0    7555    7557    7558    7559    7560    7556    7557    7558
    7559    7560    7557    7559    7558    7559    7560    7560    7560       0
    7562    7563    7564    7565    7566    7567    7568    7569    7570    7571
    7572    7573    7574    7575    7576    7563    7564    7565    7566    7567
    7568    7569    7570    7571    7572    7577    7578    7579    7564    7565
    7566    7567    7568    7569    7570    7572    7573    7574    7575    7579
    7580    7565    7566    7567    7568    7569    7570    7575    7576    7580
    7581    7582    7566    7567    7571    7572    7573    7577    7578    7579
    7583    7584    7585    7571    7572    7568    7571    7572    7573    7574
    7575    7579    7583    7585    7569    7572    7573    7574    7575    7576
    7580    7586    7587    7570    7574    7575    7576    7580    7581    7582
    7586    7587    7588    7575    7576    7572    7577    7578    7579    7583
    7584    7589    7573    7577    7578    7579    7583    7585    7589    7579
    7575    7580    7576    7580    7581    7582    7586    7587    7590    7580
    7581    7582    7587    7588    7590    7591    7592    7578    7579    7583
    7584    7585    7589    7583    7584    7583    7584    7585    7589    7581
    7586    7587    7588    7590    7593    7594    7582    7586    7587    7588
    7590    7591    7592    7593    7594    7595    7587    7588    7584    7585
    7589    7589    7589    7587    7590    7588    7590    7591    7592    7593
    7594    7596    7590    7591    7592    7593    7595    7596       0    7591
    7593    7594    7595    7596    7592    7593    7594    7595    7596    7593
    7595    7594    7595    7596    7596    7596       0    7598    7599    7600
    7601    7602    7603    7604    7605    7606    7607    7608    7609    7610
    7611    7612    7599    7600    7601    7602    7603    7604    7605    7606
    7607    7608    7613    7614    7615    7600    7601    7602    7603    7604
    7605    7606    7608    7609    7610    7611    7615    7616    7601    7602
    7603    7604    7605    7606    7611    7612    7616    7617    7618    7602
    7603    7607    7608    7609    7613    7614    7615    7619    7620    7621
    7607    7608    7604    7607    7608    7609    7610    7611    7615    7619
    7621    7605    7608    7609    7610    7611    7612    7616    7622    7623
    7606    7610    7611    7612    7616    7617    7618    7622    7623    7624
    7611    7612    7608    7613    7614    7615    7619    7620    7625    7609
    7613    7614    7615    7619    7621    7625    7615    7611    7616    7612
    7616    7617    7618    7622    7623    7626    7616    7617    7618    7623
    7624    7626    7627    7628    7614    7615    7619    7620    7621    7625
    7619    7620    7619    7620    7621    7625    7617    7622    7623    7624
    7626    7629    7630    7618    7622    7623    7624    7626    7627    7628
    7629    7630    7631    7623    7624    7620    7621    7625    7625    7625
    7623    7626    7624    7626    7627    7628    7629    7630    7632    7626
    7627    7628    7629    7631    7632       0    7627    7629    7630    7631
    7632    7628    7629    7630    7631    7632    7629    7631    7630    7631
    7632    7632    7632       0    7634    7635    7636    7637    7638    7639
    7640    7641    7642    7643    7644    7645    7646    7647    7648    7635
    7636    7637    7638    7639    7640    7641    7642    7643    7644    7649
    7650    7651    7636    7637    7638    7639    7640    7641    7642    7644
    7645    7646    7647    7651    7652    7637    7638    7639    7640    7641
    7642    7647    7648    7652    7653    7654    7638    7639    7643    7644
    7645    7649    7650    7651    7655    7656    7657    7643    7644    7640
    7643    7644    7645    7646    7647    7651    7655    7657    7641    7644
    7645    7646    7647    7648    7652    7658    7659    7642    7646    7647
    7648    7652    7653    7654    7658    7659    7660    7647    7648    7644
    7649    7650    7651    7655    7656    7661    7645    7649    7650    7651
    7655    7657    7661    7651    7647    7652    7648    7652    7653    7654
    7658    7659    7662    7652    7653    7654    7659    7660    7662    7663
    7664    7650    7651    7655    7656    7657    7661    7655    7656    7655
    7656    7657    7661    7653    7658    7659    7660    7662    7665    7666
    7654    7658    7659    7660    7662    7663    7664    7665    7666    7667
    7659    7660    7656    7657    7661    7661    7661    7659    7662    7660
    7662    7663    7664    7665    7666    7668    7662    7663    7664    7665
    7667    7668       0    7663    7665    7666    7667    7668    7664    7665
    7666    7667    7668    7665    7667    7666    7667    7668    7668    7668
       0    7670    7671    7672    7673    7674    7675    7676    7677    7678
    7679    7680    7681    7682    7683    7684    7671    7672    7673    7674
    7675    7676    7677    7678    7679    7680    7685    7686    7687    7672
    7673    7674    7675    7676    7677    7678    7680    7681    7682    7683
    7687    7688    7673    7674    7675    7676    7677    7678    7683    7684
    7688    7689    7690    7674    7675    7679    7680    7681    7685    7686
    7687    7691    7692    7693    7679    7680    7676    7679    7680    7681
    7682    7683    7687    7691    7693    7677    7680    7681    7682    7683
    7684    7688    7694    7695    7678    7682    7683    7684    7688    7689
    7690    7694    7695    7696    7683    7684    7680    7685    7686    7687
    7691    7692    7697    7681    7685    7686    7687    7691    7693    7697
    7687    7683    7688    7684    7688    7689    7690    7694    7695    7698
    7688    7689    7690    7695    7696    7698    7699    7700    7686    7687
    7691    7692    7693    7697    7691    7692    7691    7692    7693    7697
    7689    7694    7695    7696    7698    7701    7702    7690    7694    7695
    7696    7698    7699    7700    7701    7702    7703    7695    7696    7692
    7693    7697    7697    7697    7695    7698    7696    7698    7699    7700
    7701    7702    7704    7698    7699    7700    7701    7703    7704       0
    7699    7701    7702    7703    7704    7700    7701    7702    7703    7704
    7701    7703    7702    7703    7704    7704    7704       0    7706    7707
    7708    7709    7710    7711    7712    7713    7714    7715    7716    7717
    7718    7719    7720    7707    7708    7709    7710    7711    7712    7713
    7714    7715    7716    7721    7722    7723    7708    7709    7710    7711
    7712    7713    7714    7716    7717    7718    7719    7723    7724    7709
    7710    7711    7712    7713    7714    7719    7720    7724    7725    7726
    7710    7711    7715    7716    7717    7721    7722    7723    7727    7728
    7729    7715    7716    7712    7715    7716    7717    7718    7719    7723
    7727    7729    7713    7716    7717    7718    7719    7720    7724    7730
    7731    7714    7718    7719    7720    7724    7725    7726    7730    7731
    7732    7719    7720    7716    7721    7722    7723    7727    7728    7733
    7717    7721    7722    7723    7727    7729    7733    7723    7719    7724
    7720    7724    7725    7726    7730    7731    7734    7724    7725    7726
    7731    7732    7734    7735    7736    7722    7723    7727    7728    7729
    7733    7727    7728    7727    7728    7729    7733    7725    7730    7731
    7732    7734    7737    7738    7726    7730    7731    7732    7734    7735
    7736    7737    7738    7739    7731    7732    7728    7729    7733    7733
    7733    7731    7734    7732    7734    7735    7736    7737    7738    7740
    7734    7735    7736    7737    7739    7740       0    7735    7737    7738
    7739    7740    7736    7737    7738    7739    7740    7737    7739    7738
    7739    7740    7740    7740       0    7742    7743    7744    7745    7746
    7747    7748    7749    7750    7751    7752    7753    7754    7755    7756
    7743    7744    7745    7746    7747    7748    7749    7750    7751    7752
    7757    7758    7759    7744    7745    7746    7747    7748    7749    7750
    7752    7753    7754    7755    7759    7760    7745    7746    7747    7748
    7749    7750    7755    7756    7760    7761    7762    7746    7747    7751
    7752    7753    7757    7758    7759    7763    7764    7765    7751    7752
    7748    7751    7752    7753    7754    7755    7759    7763    7765    7749
    7752    7753    7754    7755    7756    7760    7766    7767    7750    7754
    7755    7756    7760    7761    7762    7766    7767    7768    7755    7756
    7752    7757    7758    7759    7763    7764    7769    7753    7757    7758
    7759    7763    7765    7769    7759    7755    7760    7756    7760    7761
    7762    7766    7767    7770    7760    7761    7762    7767    7768    7770
    7771    7772    7758    7759    7763    7764    7765    7769    7763    7764
    7763    7764    7765    7769    7761    7766    7767    7768    7770    7773
    7774    7762    7766    7767    7768    7770    7771    7772    7773    7774
    7775    7767    7768    7764    7765    7769    7769    7769    7767    7770
    7768    7770    7771    7772    7773    7774    7776    7770    7771    7772
    7773    7775    7776       0    7771    7773    7774    7775    7776    7772
    7773    7774    7775    7776    7773    7775    7774    7775    7776    7776
    7776       0    7778    7779    7780    7781    7782    7783    7784    7785
    7786    7787    7788    7789    7790    7791    7792    7779    7780    7781
    7782    7783    7784    7785    7786    7787    7788    7793    7794    7795
    7780    7781    7782    7783    7784    7785    7786    7788    7789    7790
    7791    7795    7796    7781    7782    7783    7784    7785    7786    7791
    7792    7796    7797    7798    7782    7783    7787    7788    7789    7793
    7794    7795    7799    7800    7801    7787    7788    7784    7787    7788
    7789    7790    7791    7795    7799    7801    7785    7788    7789    7790
    7791    7792    7796    7802    7803    7786    7790    7791    7792    7796
    7797    7798    7802    7803    7804    7791    7792    7788    7793    7794
    7795    7799    7800    7805    7789    7793    7794    7795    7799    7801
    7805    7795    7791    7796    7792    7796    7797    7798    7802    7803
    7806    7796    7797    7798    7803    7804    7806    7807    7808    7794
    7795    7799    7800    7801    7805    7799    7800    7799    7800    7801
    7805    7797    7802    7803    7804    7806    7809    7810    7798    7802
    7803    7804    7806    7807    7808    7809    7810    7811    7803    7804
    7800    7801    7805    7805    7805    7803    7806    7804    7806    7807
    7808    7809    7810    7812    7806    7807    7808    7809    7811    7812
       0    7807    7809    7810    7811    7812    7808    7809    7810    7811
    7812    7809    7811    7810    7811    7812    7812    7812       0    7814
    7815    7816    7817    7818    7819    7820    7821    7822    7823    7824
    7825    7826    7827    7828    7815    7816    7817    7818    7819    7820
    7821    7822    7823    7824    7829    7830    7831    7816    7817    7818
    7819    7820    7821    7822    7824    7825    7826    7827    7831    7832
    7817    7818    7819    7820    7821    7822    7827    7828    7832    7833
    7834    7818    7819    7823    7824    7825    7829    7830    7831    7835
    7836    7837    7823    7824    7820    7823    7824    7825    7826    7827
    7831    7835    7837    7821    7824    7825    7826    7827    7828    7832
    7838    7839    7822    7826    7827    7828    7832    7833    7834    7838
    7839    7840    7827    7828    7824    7829    7830    7831    7835    7836
    7841    7825    7829    7830    7831    7835    7837    7841    7831    7827
    7832    7828    7832    7833    7834    7838    7839    7842    7832    7833
    7834    7839    7840    7842    7843    7844    7830    7831    7835    7836
    7837    7841    7835    7836    7835    7836    7837    7841    7833    7838
    7839    7840    7842    7845    7846    7834    7838    7839    7840    7842
    7843    7844    7845    7846    7847    7839    7840    7836    7837    7841
    7841    7841    7839    7842    7840    7842    7843    7844    7845    7846
    7848    7842    7843    7844    7845    7847    7848       0    7843    7845
    7846    7847    7848    7844    7845    7846    7847    7848    7845    7847
    7846    7847    7848    7848    7848       0    7850    7851    7852    7853
    7854    7855    7856    7857    7858    7859    7860    7861    7862    7863
    7864    7851    7852    7853    7854    7855    7856    7857    7858    7859
    7860    7865    7866    7867    7852    7853    7854    7855    7856    7857
    7858    7860    7861    7862    7863    7867    7868    7853    7854    7855
    7856    7857    7858    7863    7864    7868    7869    7870    7854    7855
    7859    7860    7861    7865    7866    7867    7871    7872    7873    7859
    7860    7856    7859    7860    7861    7862    7863    7867    7871    7873
    7857    7860    7861    7862    7863    7864    7868    7874    7875    7858
    7862    7863    7864    7868    7869    7870    7874    7875    7876    7863
    7864    7860    7865    7866    7867    7871    7872    7877    7861    7865
    7866    7867    7871    7873    7877    7867    7863    7868    7864    7868
    7869    7870    7874    7875    7878    7868    7869    7870    7875    7876
    7878    7879    7880    7866    7867    7871    7872    7873    7877    7871
    7872    7871    7872    7873    7877    7869    7874    7875    7876    7878
    7881    7882    7870    7874    7875    7876    7878    7879    7880    7881
    7882    7883    7875    7876    7872    7873    7877    7877    7877    7875
    7878    7876    7878    7879    7880    7881    7882    7884    7878    7879
    7880    7881    7883    7884       0    7879    7881    7882    7883    7884
    7880    7881    7882    7883    7884    7881    7883    7882    7883    7884
    7884    7884       0    7886    7887    7888    7889    7890    7891    7892
    7893    7894    7895    7896    7897    7898    7899    7900    7887    7888
    7889    7890    7891    7892    7893    7894    7895    7896    7901    7902
    7903    7888    7889    7890    7891    7892    7893    7894    7896    7897
    7898    7899    7903    7904    7889    7890    7891    7892    7893    7894
    7899    7900    7904    7905    7906    7890    7891    7895    7896    7897
    7901    7902    7903    7907    7908    7909    7895    7896    7892    7895
    7896    7897    7898    7899    7903    7907    7909    7893    7896    7897
    7898    7899    7900    7904    7910    7911    7894    7898    7899    7900
    7904    7905    7906    7910    7911    7912    7899    7900    7896    7901
    7902    7903    7907    7908    7913    7897    7901    7902    7903    7907
    7909    7913    7903    7899    7904    7900    7904    7905    7906    7910
    7911    7914    7904    7905    7906    7911    7912    7914    7915    7916
    7902    7903    7907    7908    7909    7913    7907    7908    7907    7908
    7909    7913    7905    7910    7911    7912    7914    7917    7918    7906
    7910    7911    7912    7914    7915    7916    7917    7918    7919    7911
    7912    7908    7909    7913    7913    7913    7911    7914    7912    7914
    7915    7916    7917    7918    7920    7914    7915    7916    7917    7919
    7920       0    7915    7917    7918    7919    7920    7916    7917    7918
    7919    7920    7917    7919    7918    7919    7920    7920    7920       0
    7922    7923    7924    7925    7926    7927    7928    7929    7930    7931
    7932    7933    7934    7935    7936    7923    7924    7925    7926    7927
    7928    7929    7930    7931    7932    7937    7938    7939    7924    7925
    7926    7927    7928    7929    7930    7932    7933    7934    7935    7939
    7940    7925    7926    7927    7928    7929    7930    7935    7936    7940
    7941    7942    7926    7927    7931    7932    7933    7937    7938    7939
    7943    7944    7945    7931    7932    7928    7931    7932    7933    7934
    7935    7939    7943    7945    7929    7932    7933    7934    7935    7936
    7940    7946    7947    7930    7934    7935    7936    7940    7941    7942
    7946    7947    7948    7935    7936    7932    7937    7938    7939    7943
    7944    7949    7933    7937    7938    7939    7943    7945    7949    7939
    7935    7940    7936    7940    7941    7942    7946    7947    7950    7940
    7941    7942    7947    7948    7950    7951    7952    7938    7939    7943
    7944    7945    7949    7943    7944    7943    7944    7945    7949    7941
    7946    7947    7948    7950    7953    7954    7942    7946    7947    7948
    7950    7951    7952    7953    7954    7955    7947    7948    7944    7945
    7949    7949    7949    7947    7950    7948    7950    7951    7952    7953
    7954    7956    7950    7951    7952    7953    7955    7956       0    7951
    7953    7954    7955    7956    7952    7953    7954    7955    7956    7953
    7955    7954    7955    7956    7956    7956       0    7958    7959    7960
    7961    7962    7963    7964    7965    7966    7967    7968    7969    7970
    7971    7972    7959    7960    7961    7962    7963    7964    7965    7966
    7967    7968    7973    7974    7975    7960    7961    7962    7963    7964
    7965    7966    7968    7969    7970    7971    7975    7976    7961    7962
    7963    7964    7965    7966    7971    7972    7976    7977    7978    7962
    7963    7967    7968    7969    7973    7974    7975    7979    7980    7981
    7967    7968    7964    7967    7968    7969    7970    7971    7975    7979
    7981    7965    7968    7969    7970    7971    7972    7976    7982    7983
    7966    7970    7971    7972    7976    7977    7978    7982    7983    7984
    7971    7972    7968    7973    7974    7975    7979    7980    7985    7969
    7973    7974    7975    7979    7981    7985    7975    7971    7976    7972
    7976    7977    7978    7982    7983    7986    7976    7977    7978    7983
    7984    7986    7987    7988    7974    7975    7979    7980    7981    7985
    7979    7980    7979    7980    7981    7985    7977    7982    7983    7984
    7986    7989    7990    7978    7982    7983    7984    7986    7987    7988
    7989    7990    7991    7983    7984    7980    7981    7985    7985    7985
    7983    7986    7984    7986    7987    7988    7989    7990    7992    7986
    7987    7988    7989    7991    7992       0    7987    7989    7990    7991
    7992    7988    7989    7990    7991    7992    7989    7991    7990    7991
    7992    7992    7992       0    7994    7995    7996    7997    7998    7999
    8000    8001    8002    8003    8004    8005    8006    8007    8008    7995
    7996    7997    7998    7999    8000    8001    8002    8003    8004    8009
    8010    8011    7996    7997    7998    7999    8000    8001    8002    8004
    8005    8006    8007    8011    8012    7997    7998    7999    8000    8001
    8002    8007    8008    8012    8013    8014    7998    7999    8003    8004
    8005    8009    8010    8011    8015    8016    8017    8003    8004    8000
    8003    8004    8005    8006    8007    8011    8015    8017    8001    8004
    8005    8006    8007    8008    8012    8018    8019    8002    8006    8007
    8008    8012    8013    8014    8018    8019    8020    8007    8008    8004
    8009    8010    8011    8015    8016    8021    8005    8009    8010    8011
    8015    8017    8021    8011    8007    8012    8008    8012    8013    8014
    8018    8019    8022    8012    8013    8014    8019    8020    8022    8023
    8024    8010    8011    8015    8016    8017    8021    8015    8016    8015
    8016    8017    8021    8013    8018    8019    8020    8022    8025    8026
    8014    8018    8019    8020    8022    8023    8024    8025    8026    8027
    8019    8020    8016    8017    8021    8021    8021    8019    8022    8020
    8022    8023    8024    8025    8026    8028    8022    8023    8024    8025
    8027    8028       0    8023    8025    8026    8027    8028    8024    8025
    8026    8027    8028    8025    8027    8026    8027    8028    8028    8028
       0    8030    8031    8032    8033    8034    8035    8036    8037    8038
    8039    8040    8041    8042    8043    8044    8031    8032    8033    8034
    8035    8036    8037    8038    8039    8040    8045    8046    8047    8032
    8033    8034    8035    8036    8037    8038    8040    8041    8042    8043
    8047    8048    8033    8034    8035    8036    8037    8038    8043    8044
    8048    8049    8050    8034    8035    8039    8040    8041    8045    8046
    8047    8051    8052    8053    8039    8040    8036    8039    8040    8041
    8042    8043    8047    8051    8053    8037    8040    8041    8042    8043
    8044    8048    8054    8055    8038    8042    8043    8044    8048    8049
    8050    8054    8055    8056    8043    8044    8040    8045    8046    8047
    8051    8052    8057    8041    8045    8046    8047    8051    8053    8057
    8047    8043    8048    8044    8048    8049    8050    8054    8055    8058
    8048    8049    8050    8055    8056    8058    8059    8060    8046    8047
    8051    8052    8053    8057    8051    8052    8051    8052    8053    8057
    8049    8054    8055    8056    8058    8061    8062    8050    8054    8055
    8056    8058    8059    8060    8061    8062    8063    8055    8056    8052
    8053    8057    8057    8057    8055    8058    8056    8058    8059    8060
    8061    8062    8064    8058    8059    8060    8061    8063    8064       0
    8059    8061    8062    8063    8064    8060    8061    8062    8063    8064
    8061    8063    8062    8063    8064    8064    8064       0    8066    8067
    8068    8069    8070    8071    8072    8073    8074    8075    8076    8077
    8078    8079    8080    8067    8068    8069    8070    8071    8072    8073
    8074    8075    8076    8081    8082    8083    8068    8069    8070    8071
    8072    8073    8074    8076    8077    8078    8079    8083    8084    8069
    8070    8071    8072    8073    8074    8079    8080    8084    8085    8086
    8070    8071    8075    8076    8077    8081    8082    8083    8087    8088
    8089    8075    8076    8072    8075    8076    8077    8078    8079    8083
    8087    8089    8073    8076    8077    8078    8079    8080    8084    8090
    8091    8074    8078    8079    8080    8084    8085    8086    8090    8091
    8092    8079    8080    8076    8081    8082    8083    8087    8088    8093
    8077    8081    8082    8083    8087    8089    8093    8083    8079    8084
    8080    8084    8085    8086    8090    8091    8094    8084    8085    8086
    8091    8092    8094    8095    8096    8082    8083    8087    8088    8089
    8093    8087    8088    8087    8088    8089    8093    8085    8090    8091
    8092    8094    8097    8098    8086    8090    8091    8092    8094    8095
    8096    8097    8098    8099    8091    8092    8088    8089    8093    8093
    8093    8091    8094    8092    8094    8095    8096    8097    8098    8100
    8094    8095    8096    8097    8099    8100       0    8095    8097    8098
    8099    8100    8096    8097    8098    8099    8100    8097    8099    8098
    8099    8100    8100    8100       0    8102    8103    8104    8105    8106
    8107    8108    8109    8110    8111    8112    8113    8114    8115    8116
    8103    8104    8105    8106    8107    8108    8109    8110    8111    8112
    8117    8118    8119    8104    8105    8106    8107    8108    8109    8110
    8112    8113    8114    8115    8119    8120    8105    8106    8107    8108
    8109    8110    8115    8116    8120    8121    8122    8106    8107    8111
    8112    8113    8117    8118    8119    8123    8124    8125    8111    8112
    8108    8111    8112    8113    8114    8115    8119    8123    8125    8109
    8112    8113    8114    8115    8116    8120    8126    8127    8110    8114
    8115    8116    8120    8121    8122    8126    8127    8128    8115    8116
    8112    8117    8118    8119    8123    8124    8129    8113    8117    8118
    8119    8123    8125    8129    8119    8115    8120    8116    8120    8121
    8122    8126    8127    8130    8120    8121    8122    8127    8128    8130
    8131    8132    8118    8119    8123    8124    8125    8129    8123    8124
    8123    8124    8125    8129    8121    8126    8127    8128    8130    8133
    8134    8122    8126    8127    8128    8130    8131    8132    8133    8134
    8135    8127    8128    8124    8125    8129    8129    8129    8127    8130
    8128    8130    8131    8132    8133    8134    8136    8130    8131    8132
    8133    8135    8136       0    8131    8133    8134    8135    8136    8132
    8133    8134    8135    8136    8133    8135    8134    8135    8136    8136
    8136       0    8138    8139    8140    8141    8142    8143    8144    8145
    8146    8147    8148    8149    8150    8151    8152    8139    8140    8141
    8142    8143    8144    8145    8146    8147    8148    8153    8154    8155
    8140    8141    8142    8143    8144    8145    8146    8148    8149    8150
    8151    8155    8156    8141    8142    8143    8144    8145    8146    8151
    8152    8156    8157    8158    8142    8143    8147    8148    8149    8153
    8154    8155    8159    8160    8161    8147    8148    8144    8147    8148
    8149    8150    8151    8155    8159    8161    8145    8148    8149    8150
    8151    8152    8156    8162    8163    8146    8150    8151    8152    8156
    8157    8158    8162    8163    8164    8151    8152    8148    8153    8154
    8155    8159    8160    8165    8149    8153    8154    8155    8159    8161
    8165    8155    8151    8156    8152    8156    8157    8158    8162    8163
    8166    8156    8157    8158    8163    8164    8166    8167    8168    8154
    8155    8159    8160    8161    8165    8159    8160    8159    8160    8161
    8165    8157    8162    8163    8164    8166    8169    8170    8158    8162
    8163    8164    8166    8167    8168    8169    8170    8171    8163    8164
    8160    8161    8165    8165    8165    8163    8166    8164    8166    8167
    8168    8169    8170    8172    8166    8167    8168    8169    8171    8172
       0    8167    8169    8170    8171    8172    8168    8169    8170    8171
    8172    8169    8171    8170    8171    8172    8172    8172       0    8174
    8175    8176    8177    8178    8179    8180    8181    8182    8183    8184
    8185    8186    8187    8188    8175    8176    8177    8178    8179    8180
    8181    8182    8183    8184    8189    8190    8191    8176    8177    8178
    8179    8180    8181    8182    8184    8185    8186    8187    8191    8192
    8177    8178    8179    8180    8181    8182    8187    8188    8192    8193
    8194    8178    8179    8183    8184    8185    8189    8190    8191    8195
    8196    8197    8183    8184    8180    8183    8184    8185    8186    8187
    8191    8195    8197    8181    8184    8185    8186    8187    8188    8192
    8198    8199    8182    8186    8187    8188    8192    8193    8194    8198
    8199    8200    8187    8188    8184    8189    8190    8191    8195    8196
    8201    8185    8189    8190    8191    8195    8197    8201    8191    8187
    8192    8188    8192    8193    8194    8198    8199    8202    8192    8193
    8194    8199    8200    8202    8203    8204    8190    8191    8195    8196
    8197    8201    8195    8196    8195    8196    8197    8201    8193    8198
    8199    8200    8202    8205    8206    8194    8198    8199    8200    8202
    8203    8204    8205    8206    8207    8199    8200    8196    8197    8201
    8201    8201    8199    8202    8200    8202    8203    8204    8205    8206
    8208    8202    8203    8204    8205    8207    8208       0    8203    8205
    8206    8207    8208    8204    8205    8206    8207    8208    8205    8207
    8206    8207    8208    8208    8208       0    8210    8211    8212    8213
    8214    8215    8216    8217    8218    8219    8220    8221    8222    8223
    8224    8211    8212    8213    8214    8215    8216    8217    8218    8219
    8220    8225    8226    8227    8212    8213    8214    8215    8216    8217
    8218    8220    8221    8222    8223    8227    8228    8213    8214    8215
    8216    8217    8218    8223    8224    8228    8229    8230    8214    8215
    8219    8220    8221    8225    8226    8227    8231    8232    8233    8219
    8220    8216    8219    8220    8221    8222    8223    8227    8231    8233
    8217    8220    8221    8222    8223    8224    8228    8234    8235    8218
    8222    8223    8224    8228    8229    8230    8234    8235    8236    8223
    8224    8220    8225    8226    8227    8231    8232    8237    8221    8225
    8226    8227    8231    8233    8237    8227    8223    8228    8224    8228
    8229    8230    8234    8235    8238    8228    8229    8230    8235    8236
    8238    8239    8240    8226    8227    8231    8232    8233    8237    8231
    8232    8231    8232    8233    8237    8229    8234    8235    8236    8238
    8241    8242    8230    8234    8235    8236    8238    8239    8240    8241
    8242    8243    8235    8236    8232    8233    8237    8237    8237    8235
    8238    8236    8238    8239    8240    8241    8242    8244    8238    8239
    8240    8241    8243    8244       0    8239    8241    8242    8243    8244
    8240    8241    8242    8243    8244    8241    8243    8242    8243    8244
    8244    8244       0    8246    8247    8248    8249    8250    8251    8252
    8253    8254    8255    8256    8257    8258    8259    8260    8247    8248
    8249    8250    8251    8252    8253    8254    8255    8256    8261    8262
    8263    8248    8249    8250    8251    8252    8253    8254    8256    8257
    8258    8259    8263    8264    8249    8250    8251    8252    8253    8254
    8259    8260    8264    8265    8266    8250    8251    8255    8256    8257
    8261    8262    8263    8267    8268    8269    8255    8256    8252    8255
    8256    8257    8258    8259    8263    8267    8269    8253    8256    8257
    8258    8259    8260    8264    8270    8271    8254    8258    8259    8260
    8264    8265    8266    8270    8271    8272    8259    8260    8256    8261
    8262    8263    8267    8268    8273    8257    8261    8262    8263    8267
    8269    8273    8263    8259    8264    8260    8264    8265    8266    8270
    8271    8274    8264    8265    8266    8271    8272    8274    8275    8276
    8262    8263    8267    8268    8269    8273    8267    8268    8267    8268
    8269    8273    8265    8270    8271    8272    8274    8277    8278    8266
    8270    8271    8272    8274    8275    8276    8277    8278    8279    8271
    8272    8268    8269    8273    8273    8273    8271    8274    8272    8274
    8275    8276    8277    8278    8280    8274    8275    8276    8277    8279
    8280       0    8275    8277    8278    8279    8280    8276    8277    8278
    8279    8280    8277    8279    8278    8279    8280    8280    8280       0
    8282    8283    8284    8285    8286    8287    8288    8289    8290    8291
    8292    8293    8294    8295    8296    8283    8284    8285    8286    8287
    8288    8289    8290    8291    8292    8297    8298    8299    8284    8285
    8286    8287    8288    8289    8290    8292    8293    8294    8295    8299
    8300    8285    8286    8287    8288    8289    8290    8295    8296    8300
    8301    8302    8286    8287    8291    8292    8293    8297    8298    8299
    8303    8304    8305    8291    8292    8288    8291    8292    8293    8294
    8295    8299    8303    8305    8289    8292    8293    8294    8295    8296
    8300    8306    8307    8290    8294    8295    8296    8300    8301    8302
    8306    8307    8308    8295    8296    8292    8297    8298    8299    8303
    8304    8309    8293    8297    8298    8299    8303    8305    8309    8299
    8295    8300    8296    8300    8301    8302    8306    8307    8310    8300
    8301    8302    8307    8308    8310    8311    8312    8298    8299    8303
    8304    8305    8309    8303    8304    8303    8304    8305    8309    8301
    8306    8307    8308    8310    8313    8314    8302    8306    8307    8308
    8310    8311    8312    8313    8314    8315    8307    8308    8304    8305
    8309    8309    8309    8307    8310    8308    8310    8311    8312    8313
    8314    8316    8310    8311    8312    8313    8315    8316       0    8311
    8313    8314    8315    8316    8312    8313    8314    8315    8316    8313
    8315    8314    8315    8316    8316    8316       0    8318    8319    8320
    8321    8322    8323    8324    8325    8326    8327    8328    8329    8330
    8331    8332    8319    8320    8321    8322    8323    8324    8325    8326
    8327    8328    8333    8334    8335    8320    8321    8322    8323    8324
    8325    8326    8328    8329    8330    8331    8335    8336    8321    8322
    8323    8324    8325    8326    8331    8332    8336    8337    8338    8322
    8323    8327    8328    8329    8333    8334    8335    8339    8340    8341
    8327    8328    8324    8327    8328    8329    8330    8331    8335    8339
    8341    8325    8328    8329    8330    8331    8332    8336    8342    8343
    8326    8330    8331    8332    8336    8337    8338    8342    8343    8344
    8331    8332    8328    8333    8334    8335    8339    8340    8345    8329
    8333    8334    8335    8339    8341    8345    8335    8331    8336    8332
    8336    8337    8338    8342    8343    8346    8336    8337    8338    8343
    8344    8346    8347    8348    8334    8335    8339    8340    8341    8345
    8339    8340    8339    8340    8341    8345    8337    8342    8343    8344
    8346    8349    8350    8338    8342    8343    8344    8346    8347    8348
    8349    8350    8351    8343    8344    8340    8341    8345    8345    8345
    8343    8346    8344    8346    8347    8348    8349    8350    8352    8346
    8347    8348    8349    8351    8352       0    8347    8349    8350    8351
    8352    8348    8349    8350    8351    8352    8349    8351    8350    8351
    8352    8352    8352       0    8354    8355    8356    8357    8358    8359
    8360    8361    8362    8363    8364    8365    8366    8367    8368    8355
    8356    8357    8358    8359    8360    8361    8362    8363    8364    8369
    8370    8371    8356    8357    8358    8359    8360    8361    8362    8364
    8365    8366    8367    8371    8372    8357    8358    8359    8360    8361
    8362    8367    8368    8372    8373    8374    8358    8359    8363    8364
    8365    8369    8370    8371    8375    8376    8377    8363    8364    8360
    8363    8364    8365    8366    8367    8371    8375    8377    8361    8364
    8365    8366    8367    8368    8372    8378    8379    8362    8366    8367
    8368    8372    8373    8374    8378    8379    8380    8367    8368    8364
    8369    8370    8371    8375    8376    8381    8365    8369    8370    8371
    8375    8377    8381    8371    8367    8372    8368    8372    8373    8374
    8378    8379    8382    8372    8373    8374    8379    8380    8382    8383
    8384    8370    8371    8375    8376    8377    8381    8375    8376    8375
    8376    8377    8381    8373    8378    8379    8380    8382    8385    8386
    8374    8378    8379    8380    8382    8383    8384    8385    8386    8387
    8379    8380    8376    8377    8381    8381    8381    8379    8382    8380
    8382    8383    8384    8385    8386    8388    8382    8383    8384    8385
    8387    8388       0    8383    8385    8386    8387    8388    8384    8385
    8386    8387    8388    8385    8387    8386    8387    8388    8388    8388
       0    8390    8391    8392    8393    8394    8395    8396    8397    8398
    8399    8400    8401    8402    8403    8404    8391    8392    8393    8394
    8395    8396    8397    8398    8399    8400    8405    8406    8407    8392
    8393    8394    8395    8396    8397    8398    8400    8401    8402    8403
    8407    8408    8393    8394    8395    8396    8397    8398    8403    8404
    8408    8409    8410    8394    8395    8399    8400    8401    8405    8406
    8407    8411    8412    8413    8399    8400    8396    8399    8400    8401
    8402    8403    8407    8411    8413    8397    8400    8401    8402    8403
    8404    8408    8414    8415    8398    8402    8403    8404    8408    8409
    8410    8414    8415    8416    8403    8404    8400    8405    8406    8407
    8411    8412    8417    8401    8405    8406    8407    8411    8413    8417
    8407    8403    8408    8404    8408    8409    8410    8414    8415    8418
    8408    8409    8410    8415    8416    8418    8419    8420    8406    8407
    8411    8412    8413    8417    8411    8412    8411    8412    8413    8417
    8409    8414    8415    8416    8418    8421    8422    8410    8414    8415
    8416    8418    8419    8420    8421    8422    8423    8415    8416    8412
    8413    8417    8417    8417    8415    8418    8416    8418    8419    8420
    8421    8422    8424    8418    8419    8420    8421    8423    8424       0
    8419    8421    8422    8423    8424    8420    8421    8422    8423    8424
    8421    8423    8422    8423    8424    8424    8424       0    8426    8427
    8428    8429    8430    8431    8432    8433    8434    8435    8436    8437
    8438    8439    8440    8427    8428    8429    8430    8431    8432    8433
    8434    8435    8436    8441    8442    8443    8428    8429    8430    8431
    8432    8433    8434    8436    8437    8438    8439    8443    8444    8429
    8430    8431    8432    8433    8434    8439    8440    8444    8445    8446
    8430    8431    8435    8436    8437    8441    8442    8443    8447    8448
    8449    8435    8436    8432    8435    8436    8437    8438    8439    8443
    8447    8449    8433    8436    8437    8438    8439    8440    8444    8450
    8451    8434    8438    8439    8440    8444    8445    8446    8450    8451
    8452    8439    8440    8436    8441    8442    8443    8447    8448    8453
    8437    8441    8442    8443    8447    8449    8453    8443    8439    8444
    8440    8444    8445    8446    8450    8451    8454    8444    8445    8446
    8451    8452    8454    8455    8456    8442    8443    8447    8448    8449
    8453    8447    8448    8447    8448    8449    8453    8445    8450    8451
    8452    8454    8457    8458    8446    8450    8451    8452    8454    8455
    8456    8457    8458    8459    8451    8452    8448    8449    8453    8453
    8453    8451    8454    8452    8454    8455    8456    8457    8458    8460
    8454    8455    8456    8457    8459    8460       0    8455    8457    8458
    8459    8460    8456    8457    8458    8459    8460    8457    8459    8458
    8459    8460    8460    8460       0    8462    8463    8464    8465    8466
    8467    8468    8469    8470    8471    8472    8473    8474    8475    8476
    8463    8464    8465    8466    8467    8468    8469    8470    8471    8472
    8477    8478    8479    8464    8465    8466    8467    8468    8469    8470
    8472    8473    8474    8475    8479    8480    8465    8466    8467    8468
    8469    8470    8475    8476    8480    8481    8482    8466    8467    8471
    8472    8473    8477    8478    8479    8483    8484    8485    8471    8472
    8468    8471    8472    8473    8474    8475    8479    8483    8485    8469
    8472    8473    8474    8475    8476    8480    8486    8487    8470    8474
    8475    8476    8480    8481    8482    8486    8487    8488    8475    8476
    8472    8477    8478    8479    8483    8484    8489    8473    8477    8478
    8479    8483    8485    8489    8479    8475    8480    8476    8480    8481
    8482    8486    8487    8490    8480    8481    8482    8487    8488    8490
    8491    8492    8478    8479    8483    8484    8485    8489    8483    8484
    8483    8484    8485    8489    8481    8486    8487    8488    8490    8493
    8494    8482    8486    8487    8488    8490    8491    8492    8493    8494
    8495    8487    8488    8484    8485    8489    8489    8489    8487    8490
    8488    8490    8491    8492    8493    8494    8496    8490    8491    8492
    8493    8495    8496       0    8491    8493    8494    8495    8496    8492
    8493    8494    8495    8496    8493    8495    8494    8495    8496    8496
    8496       0    8498    8499    8500    8501    8502    8503    8504    8505
    8506    8507    8508    8509    8510    8511    8512    8499    8500    8501
    8502    8503    8504    8505    8506    8507    8508    8513    8514    8515
    8500    8501    8502    8503    8504    8505    8506    8508    8509    8510
    8511    8515    8516    8501    8502    8503    8504    8505    8506    8511
    8512    8516    8517    8518    8502    8503    8507    8508    8509    8513
    8514    8515    8519    8520    8521    8507    8508    8504    8507    8508
    8509    8510    8511    8515    8519    8521    8505    8508    8509    8510
    8511    8512    8516    8522    8523    8506    8510    8511    8512    8516
    8517    8518    8522    8523    8524    8511    8512    8508    8513    8514
    8515    8519    8520    8525    8509    8513    8514    8515    8519    8521
    8525    8515    8511    8516    8512    8516    8517    8518    8522    8523
    8526    8516    8517    8518    8523    8524    8526    8527    8528    8514
    8515    8519    8520    8521    8525    8519    8520    8519    8520    8521
    8525    8517    8522    8523    8524    8526    8529    8530    8518    8522
    8523    8524    8526    8527    8528    8529    8530    8531    8523    8524
    8520    8521    8525    8525    8525    8523    8526    8524    8526    8527
    8528    8529    8530    8532    8526    8527    8528    8529    8531    8532
       0    8527    8529    8530    8531    8532    8528    8529    8530    8531
    8532    8529    8531    8530    8531    8532    8532    8532       0    8534
    8535    8536    8537    8538    8539    8540    8541    8542    8543    8544
    8545    8546    8547    8548    8535    8536    8537    8538    8539    8540
    8541    8542    8543    8544    8549    8550    8551    8536    8537    8538
    8539    8540    8541    8542    8544    8545    8546    8547    8551    8552
    8537    8538    8539    8540    8541    8542    8547    8548    8552    8553
    8554    8538    8539    8543    8544    8545    8549    8550    8551    8555
    8556    8557    8543    8544    8540    8543    8544    8545    8546    8547
    8551    8555    8557    8541    8544    8545    8546    8547    8548    8552
    8558    8559    8542    8546    8547    8548    8552    8553    8554    8558
    8559    8560    8547    8548    8544    8549    8550    8551    8555    8556
    8561    8545    8549    8550    8551    8555    8557    8561    8551    8547
    8552    8548    8552    8553    8554    8558    8559    8562    8552    8553
    8554    8559    8560    8562    8563    8564    8550    8551    8555    8556
    8557    8561    8555    8556    8555    8556    8557    8561    8553    8558
    8559    8560    8562    8565    8566    8554    8558    8559    8560    8562
    8563    8564    8565    8566    8567    8559    8560    8556    8557    8561
    8561    8561    8559    8562    8560    8562    8563    8564    8565    8566
    8568    8562    8563    8564    8565    8567    8568       0    8563    8565
    8566    8567    8568    8564    8565    8566    8567    8568    8565    8567
    8566    8567    8568    8568    8568       0    8570    8571    8572    8573
    8574    8575    8576    8577    8578    8579    8580    8581    8582    8583
    8584    8571    8572    8573    8574    8575    8576    8577    8578    8579
    8580    8585    8586    8587    8572    8573    8574    8575    8576    8577
    8578    8580    8581    8582    8583    8587    8588    8573    8574    8575
    8576    8577    8578    8583    8584    8588    8589    8590    8574    8575
    8579    8580    8581    8585    8586    8587    8591    8592    8593    8579
    8580    8576    8579    8580    8581    8582    8583    8587    8591    8593
    8577    8580    8581    8582    8583    8584    8588    8594    8595    8578
    8582    8583    8584    8588    8589    8590    8594    8595    8596    8583
    8584    8580    8585    8586    8587    8591    8592    8597    8581    8585
    8586    8587    8591    8593    8597    8587    8583    8588    8584    8588
    8589    8590    8594    8595    8598    8588    8589    8590    8595    8596
    8598    8599    8600    8586    8587    8591    8592    8593    8597    8591
    8592    8591    8592    8593    8597    8589    8594    8595    8596    8598
    8601    8602    8590    8594    8595    8596    8598    8599    8600    8601
    8602    8603    8595    8596    8592    8593    8597    8597    8597    8595
    8598    8596    8598    8599    8600    8601    8602    8604    8598    8599
    8600    8601    8603    8604       0    8599    8601    8602    8603    8604
    8600    8601    8602    8603    8604    8601    8603    8602    8603    8604
    8604    8604       0    8606    8607    8608    8609    8610    8611    8612
    8613    8614    8615    8616    8617    8618    8619    8620    8607    8608
    8609    8610    8611    8612    8613    8614    8615    8616    8621    8622
    8623    8608    8609    8610    8611    8612    8613    8614    8616    8617
    8618    8619    8623    8624    8609    8610    8611    8612    8613    8614
    8619    8620    8624    8625    8626    8610    8611    8615    8616    8617
    8621    8622    8623    8627    8628    8629    8615    8616    8612    8615
    8616    8617    8618    8619    8623    8627    8629    8613    8616    8617
    8618    8619    8620    8624    8630    8631    8614    8618    8619    8620
    8624    8625    8626    8630    8631    8632    8619    8620    8616    8621
    8622    8623    8627    8628    8633    8617    8621    8622    8623    8627
    8629    8633    8623    8619    8624    8620    8624    8625    8626    8630
    8631    8634    8624    8625    8626    8631    8632    8634    8635    8636
    8622    8623    8627    8628    8629    8633    8627    8628    8627    8628
    8629    8633    8625    8630    8631    8632    8634    8637    8638    8626
    8630    8631    8632    8634    8635    8636    8637    8638    8639    8631
    8632    8628    8629    8633    8633    8633    8631    8634    8632    8634
    8635    8636    8637    8638    8640    8634    8635    8636    8637    8639
    8640       0    8635    8637    8638    8639    8640    8636    8637    8638
    8639    8640    8637    8639    8638    8639    8640    8640    8640       0
    8642    8643    8644    8645    8646    8647    8648    8649    8650    8651
    8652    8653    8654    8655    8656    8643    8644    8645    8646    8647
    8648    8649    8650    8651    8652    8657    8658    8659    8644    8645
    8646    8647    8648    8649    8650    8652    8653    8654    8655    8659
    8660    8645    8646    8647    8648    8649    8650    8655    8656    8660
    8661    8662    8646    8647    8651    8652    8653    8657    8658    8659
    8663    8664    8665    8651    8652    8648    8651    8652    8653    8654
    8655    8659    8663    8665    8649    8652    8653    8654    8655    8656
    8660    8666    8667    8650    8654    8655    8656    8660    8661    8662
    8666    8667    8668    8655    8656    8652    8657    8658    8659    8663
    8664    8669    8653    8657    8658    8659    8663    8665    8669    8659
    8655    8660    8656    8660    8661    8662    8666    8667    8670    8660
    8661    8662    8667    8668    8670    8671    8672    8658    8659    8663
    8664    8665    8669    8663    8664    8663    8664    8665    8669    8661
    8666    8667    8668    8670    8673    8674    8662    8666    8667    8668
    8670    8671    8672    8673    8674    8675    8667    8668    8664    8665
    8669    8669    8669    8667    8670    8668    8670    8671    8672    8673
    8674    8676    8670    8671    8672    8673    8675    8676       0    8671
    8673    8674    8675    8676    8672    8673    8674    8675    8676    8673
    8675    8674    8675    8676    8676    8676       0    8678    8679    8680
    8681    8682    8683    8684    8685    8686    8687    8688    8689    8690
    8691    8692    8679    8680    8681    8682    8683    8684    8685    8686
    8687    8688    8693    8694    8695    8680    8681    8682    8683    8684
    8685    8686    8688    8689    8690    8691    8695    8696    8681    8682
    8683    8684    8685    8686    8691    8692    8696    8697    8698    8682
    8683    8687    8688    8689    8693    8694    8695    8699    8700    8701
    8687    8688    8684    8687    8688    8689    8690    8691    8695    8699
    8701    8685    8688    8689    8690    8691    8692    8696    8702    8703
    8686    8690    8691    8692    8696    8697    8698    8702    8703    8704
    8691    8692    8688    8693    8694    8695    8699    8700    8705    8689
    8693    8694    8695    8699    8701    8705    8695    8691    8696    8692
    8696    8697    8698    8702    8703    8706    8696    8697    8698    8703
    8704    8706    8707    8708    8694    8695    8699    8700    8701    8705
    8699    8700    8699    8700    8701    8705    8697    8702    8703    8704
    8706    8709    8710    8698    8702    8703    8704    8706    8707    8708
    8709    8710    8711    8703    8704    8700    8701    8705    8705    8705
    8703    8706    8704    8706    8707    8708    8709    8710    8712    8706
    8707    8708    8709    8711    8712       0    8707    8709    8710    8711
    8712    8708    8709    8710    8711    8712    8709    8711    8710    8711
    8712    8712    8712       0    8714    8715    8716    8717    8718    8719
    8720    8721    8722    8723    8724    8725    8726    8727    8728    8715
    8716    8717    8718    8719    8720    8721    8722    8723    8724    8729
    8730    8731    8716    8717    8718    8719    8720    8721    8722    8724
    8725    8726    8727    8731    8732    8717    8718    8719    8720    8721
    8722    8727    8728    8732    8733    8734    8718    8719    8723    8724
    8725    8729    8730    8731    8735    8736    8737    8723    8724    8720
    8723    8724    8725    8726    8727    8731    8735    8737    8721    8724
    8725    8726    8727    8728    8732    8738    8739    8722    8726    8727
    8728    8732    8733    8734    8738    8739    8740    8727    8728    8724
    8729    8730    8731    8735    8736    8741    8725    8729    8730    8731
    8735    8737    8741    8731    8727    8732    8728    8732    8733    8734
    8738    8739    8742    8732    8733    8734    8739    8740    8742    8743
    8744    8730    8731    8735    8736    8737    8741    8735    8736    8735
    8736    8737    8741    8733    8738    8739    8740    8742    8745    8746
    8734    8738    8739    8740    8742    8743    8744    8745    8746    8747
    8739    8740    8736    8737    8741    8741    8741    8739    8742    8740
    8742    8743    8744    8745    8746    8748    8742    8743    8744    8745
    8747    8748       0    8743    8745    8746    8747    8748    8744    8745
    8746    8747    8748    8745    8747    8746    8747    8748    8748    8748
       0    8750    8751    8752    8753    8754    8755    8756    8757    8758
    8759    8760    8761    8762    8763    8764    8751    8752    8753    8754
    8755    8756    8757    8758    8759    8760    8765    8766    8767    8752
    8753    8754    8755    8756    8757    8758    8760    8761    8762    8763
    8767    8768    8753    8754    8755    8756    8757    8758    8763    8764
    8768    8769    8770    8754    8755    8759    8760    8761    8765    8766
    8767    8771    8772    8773    8759    8760    8756    8759    8760    8761
    8762    8763    8767    8771    8773    8757    8760    8761    8762    8763
    8764    8768    8774    8775    8758    8762    8763    8764    8768    8769
    8770    8774    8775    8776    8763    8764    8760    8765    8766    8767
    8771    8772    8777    8761    8765    8766    8767    8771    8773    8777
    8767    8763    8768    8764    8768    8769    8770    8774    8775    8778
    8768    8769    8770    8775    8776    8778    8779    8780    8766    8767
    8771    8772    8773    8777    8771    8772    8771    8772    8773    8777
    8769    8774    8775    8776    8778    8781    8782    8770    8774    8775
    8776    8778    8779    8780    8781    8782    8783    8775    8776    8772
    8773    8777    8777    8777    8775    8778    8776    8778    8779    8780
    8781    8782    8784    8778    8779    8780    8781    8783    8784       0
    8779    8781    8782    8783    8784    8780    8781    8782    8783    8784
    8781    8783    8782    8783    8784    8784    8784       0    8786    8787
    8788    8789    8790    8791    8792    8793    8794    8795    8796    8797
    8798    8799    8800    8787    8788    8789    8790    8791    8792    8793
    8794    8795    8796    8801    8802    8803    8788    8789    8790    8791
    8792    8793    8794    8796    8797    8798    8799    8803    8804    8789
    8790    8791    8792    8793    8794    8799    8800    8804    8805    8806
    8790    8791    8795    8796    8797    8801    8802    8803    8807    8808
    8809    8795    8796    8792    8795    8796    8797    8798    8799    8803
    8807    8809    8793    8796    8797    8798    8799    8800    8804    8810
    8811    8794    8798    8799    8800    8804    8805    8806    8810    8811
    8812    8799    8800    8796    8801    8802    8803    8807    8808    8813
    8797    8801    8802    8803    8807    8809    8813    8803    8799    8804
    8800    8804    8805    8806    8810    8811    8814    8804    8805    8806
    8811    8812    8814    8815    8816    8802    8803    8807    8808    8809
    8813    8807    8808    8807    8808    8809    8813    8805    8810    8811
    8812    8814    8817    8818    8806    8810    8811    8812    8814    8815
    8816    8817    8818    8819    8811    8812    8808    8809    8813    8813
    8813    8811    8814    8812    8814    8815    8816    8817    8818    8820
    8814    8815    8816    8817    8819    8820       0    8815    8817    8818
    8819    8820    8816    8817    8818    8819    8820    8817    8819    8818
    8819    8820    8820    8820       0    8822    8823    8824    8825    8826
    8827    8828    8829    8830    8831    8832    8833    8834    8835    8836
    8823    8824    8825    8826    8827    8828    8829    8830    8831    8832
    8837    8838    8839    8824    8825    8826    8827    8828    8829    8830
    8832    8833    8834    8835    8839    8840    8825    8826    8827    8828
    8829    8830    8835    8836    8840    8841    8842    8826    8827    8831
    8832    8833    8837    8838    8839    8843    8844    8845    8831    8832
    8828    8831    8832    8833    8834    8835    8839    8843    8845    8829
    8832    8833    8834    8835    8836    8840    8846    8847    8830    8834
    8835    8836    8840    8841    8842    8846    8847    8848    8835    8836
    8832    8837    8838    8839    8843    8844    8849    8833    8837    8838
    8839    8843    8845    8849    8839    8835    8840    8836    8840    8841
    8842    8846    8847    8850    8840    8841    8842    8847    8848    8850
    8851    8852    8838    8839    8843    8844    8845    8849    8843    8844
    8843    8844    8845    8849    8841    8846    8847    8848    8850    8853
    8854    8842    8846    8847    8848    8850    8851    8852    8853    8854
    8855    8847    8848    8844    8845    8849    8849    8849    8847    8850
    8848    8850    8851    8852    8853    8854    8856    8850    8851    8852
    8853    8855    8856       0    8851    8853    8854    8855    8856    8852
    8853    8854    8855    8856    8853    8855    8854    8855    8856    8856
    8856       0    8858    8859    8860    8861    8862    8863    8864    8865
    8866    8867    8868    8869    8870    8871    8872    8859    8860    8861
    8862    8863    8864    8865    8866    8867    8868    8873    8874    8875
    8860    8861    8862    8863    8864    8865    8866    8868    8869    8870
    8871    8875    8876    8861    8862    8863    8864    8865    8866    8871
    8872    8876    8877    8878    8862    8863    8867    8868    8869    8873
    8874    8875    8879    8880    8881    8867    8868    8864    8867    8868
    8869    8870    8871    8875    8879    8881    8865    8868    8869    8870
    8871    8872    8876    8882    8883    8866    8870    8871    8872    8876
    8877    8878    8882    8883    8884    8871    8872    8868    8873    8874
    8875    8879    8880    8885    8869    8873    8874    8875    8879    8881
    8885    8875    8871    8876    8872    8876    8877    8878    8882    8883
    8886    8876    8877    8878    8883    8884    8886    8887    8888    8874
    8875    8879    8880    8881    8885    8879    8880    8879    8880    8881
    8885    8877    8882    8883    8884    8886    8889    8890    8878    8882
    8883    8884    8886    8887    8888    8889    8890    8891    8883    8884
    8880    8881    8885    8885    8885    8883    8886    8884    8886    8887
    8888    8889    8890    8892    8886    8887    8888    8889    8891    8892
       0    8887    8889    8890    8891    8892    8888    8889    8890    8891
    8892    8889    8891    8890    8891    8892    8892    8892       0    8894
    8895    8896    8897    8898    8899    8900    8901    8902    8903    8904
    8905    8906    8907    8908    8895    8896    8897    8898    8899    8900
    8901    8902    8903    8904    8909    8910    8911    8896    8897    8898
    8899    8900    8901    8902    8904    8905    8906    8907    8911    8912
    8897    8898    8899    8900    8901    8902    8907    8908    8912    8913
    8914    8898    8899    8903    8904    8905    8909    8910    8911    8915
    8916    8917    8903    8904    8900    8903    8904    8905    8906    8907
    8911    8915    8917    8901    8904    8905    8906    8907    8908    8912
    8918    8919    8902    8906    8907    8908    8912    8913    8914    8918
    8919    8920    8907    8908    8904    8909    8910    8911    8915    8916
    8921    8905    8909    8910    8911    8915    8917    8921    8911    8907
    8912    8908    8912    8913    8914    8918    8919    8922    8912    8913
    8914    8919    8920    8922    8923    8924    8910    8911    8915    8916
    8917    8921    8915    8916    8915    8916    8917    8921    8913    8918
    8919    8920    8922    8925    8926    8914    8918    8919    8920    8922
    8923    8924    8925    8926    8927    8919    8920    8916    8917    8921
    8921    8921    8919    8922    8920    8922    8923    8924    8925    8926
    8928    8922    8923    8924    8925    8927    8928       0    8923    8925
    8926    8927    8928    8924    8925    8926    8927    8928    8925    8927
    8926    8927    8928    8928    8928       0    8930    8931    8932    8933
    8934    8935    8936    8937    8938    8939    8940    8941    8942    8943
    8944    8931    8932    8933    8934    8935    8936    8937    8938    8939
    8940    8945    8946    8947    8932    8933    8934    8935    8936    8937
    8938    8940    8941    8942    8943    8947    8948    8933    8934    8935
    8936    8937    8938    8943    8944    8948    8949    8950    8934    8935
    8939    8940    8941    8945    8946    8947    8951    8952    8953    8939
    8940    8936    8939    8940    8941    8942    8943    8947    8951    8953
    8937    8940    8941    8942    8943    8944    8948    8954    8955    8938
    8942    8943    8944    8948    8949    8950    8954    8955    8956    8943
    8944    8940    8945    8946    8947    8951    8952    8957    8941    8945
    8946    8947    8951    8953    8957    8947    8943    8948    8944    8948
    8949    8950    8954    8955    8958    8948    8949    8950    8955    8956
    8958    8959    8960    8946    8947    8951    8952    8953    8957    8951
    8952    8951    8952    8953    8957    8949    8954    8955    8956    8958
    8961    8962    8950    8954    8955    8956    8958    8959    8960    8961
    8962    8963    8955    8956    8952    8953    8957    8957    8957    8955
    8958    8956    8958    8959    8960    8961    8962    8964    8958    8959
    8960    8961    8963    8964       0    8959    8961    8962    8963    8964
    8960    8961    8962    8963    8964    8961    8963    8962    8963    8964
    8964    8964       0    8966    8967    8968    8969    8970    8971    8972
    8973    8974    8975    8976    8977    8978    8979    8980    8967    8968
    8969    8970    8971    8972    8973    8974    8975    8976    8981    8982
    8983    8968    8969    8970    8971    8972    8973    8974    8976    8977
    8978    8979    8983    8984    8969    8970    8971    8972    8973    8974
    8979    8980    8984    8985    8986    8970    8971    8975    8976    8977
    8981    8982    8983    8987    8988    8989    8975    8976    8972    8975
    8976    8977    8978    8979    8983    8987    8989    8973    8976    8977
    8978    8979    8980    8984    8990    8991    8974    8978    8979    8980
    8984    8985    8986    8990    8991    8992    8979    8980    8976    8981
    8982    8983    8987    8988    8993    8977    8981    8982    8983    8987
    8989    8993    8983    8979    8984    8980    8984    8985    8986    8990
    8991    8994    8984    8985    8986    8991    8992    8994    8995    8996
    8982    8983    8987    8988    8989    8993    8987    8988    8987    8988
    8989    8993    8985    8990    8991    8992    8994    8997    8998    8986
    8990    8991    8992    8994    8995    8996    8997    8998    8999    8991
    8992    8988    8989    8993    8993    8993    8991    8994    8992    8994
    8995    8996    8997    8998    9000    8994    8995    8996    8997    8999
    9000       0    8995    8997    8998    8999    9000    8996    8997    8998
    8999    9000    8997    8999    8998    8999    9000    9000    9000       0
%FLAG HBOND_ACOEF                                                               
%FORMAT(5E16.8)                                                                 

%FLAG HBOND_BCOEF                                                               
%FORMAT(5E16.8)                                                                 

%FLAG HBCUT                                                                     
%FORMAT(5E16.8)                                                                 

%FLAG AMBER_ATOM_TYPE                                                           
%FORMAT(20a4)                                                                   
ca  ca  ca  ca  ca  ha  ca  ca  ca  ha  ca  ca  ha  ha  ca  ca  ca  ha  ca  ca  
ca  ha  ca  ha  ha  ha  ca  ca  ha  ca  ca  ha  ca  ha  ha  ha  ca  ca  ca  ca  
ca  ha  ca  ca  ca  ha  ca  ca  ha  ha  ca  ca  ca  ha  ca  ca  ca  ha  ca  ha  
ha  ha  ca  ca  ha  ca  ca  ha  ca  ha  ha  ha  ca  ca  ca  ca  ca  ha  ca  ca  
ca  ha  ca  ca  ha  ha  ca  ca  ca  ha  ca  ca  ca  ha  ca  ha  ha  ha  ca  ca  
ha  ca  ca  ha  ca  ha  ha  ha  ca  ca  ca  ca  ca  ha  ca  ca  ca  ha  ca  ca  
ha  ha  ca  ca  ca  ha  ca  ca  ca  ha  ca  ha  ha  ha  ca  ca  ha  ca  ca  ha  
ca  ha  ha  ha  ca  ca  ca  ca  ca  ha  ca  ca  ca  ha  ca  ca  ha  ha  ca  ca  
ca  ha  ca  ca  ca  ha  ca  ha  ha  ha  ca  ca  ha  ca  ca  ha  ca  ha  ha  ha  
ca  ca  ca  ca  ca  ha  ca  ca  ca  ha  ca  ca  ha  ha  ca  ca  ca  ha  ca  ca  
ca  ha  ca  ha  ha  ha  ca  ca  ha  ca  ca  ha  ca  ha  ha  ha  ca  ca  ca  ca  
ca  ha  ca  ca  ca  ha  ca  ca  ha  ha  ca  ca  ca  ha  ca  ca  ca  ha  ca  ha  
ha  ha  ca  ca  ha  ca  ca  ha  ca  ha  ha  ha  ca  ca  ca  ca  ca  ha  ca  ca  
ca  ha  ca  ca  ha  ha  ca  ca  ca  ha  ca  ca  ca  ha  ca  ha  ha  ha  ca  ca  
ha  ca  ca  ha  ca  ha  ha  ha  ca  ca  ca  ca  ca  ha  ca  ca  ca  ha  ca  ca  
ha  ha  ca  ca  ca  ha  ca  ca  ca  ha  ca  ha  ha  ha  ca  ca  ha  ca  ca  ha  
ca  ha  ha  ha  ca  ca  ca  ca  ca  ha  ca  ca  ca  ha  ca  ca  ha  ha  ca  ca  
ca  ha  ca  ca  ca  ha  ca  ha  ha  ha  ca  ca  ha  ca  ca  ha  ca  ha  ha  ha  
ca  ca  ca  ca  ca  ha  ca  ca  ca  ha  ca  ca  ha  ha  ca  ca  ca  ha  ca  ca  
ca  ha  ca  ha  ha  ha  ca  ca  ha  ca  ca  ha  ca  ha  ha  ha  ca  ca  ca  ca  
ca  ha  ca  ca  ca  ha  ca  ca  ha  ha  ca  ca  ca  ha  ca  ca  ca  ha  ca  ha  
ha  ha  ca  ca  ha  ca  ca  ha  ca  ha  ha  ha  ca  ca  ca  ca  ca  ha  ca  ca  
ca  ha  ca  ca  ha  ha  ca  ca  ca  ha  ca  ca  ca  ha  ca  ha  ha  ha  ca  ca  
ha  ca  ca  ha  ca  ha  ha  ha  ca  ca  ca  ca  ca  ha  ca  ca  ca  ha  ca  ca  
ha  ha  ca  ca  ca  ha  ca  ca  ca  ha  ca  ha  ha  ha  ca  ca  ha  ca  ca  ha  
ca  ha  ha  ha  ca  ca  ca  ca  ca  ha  ca  ca  ca  ha  ca  ca  ha  ha  ca  ca  
ca  ha  ca  ca  ca  ha  ca  ha  ha  ha  ca  ca  ha  ca  ca  ha  ca  ha  ha  ha  
ca  ca  ca  ca  ca  ha  ca  ca  ca  ha  ca  ca  ha  ha  ca  ca  ca  ha  ca  ca  
ca  ha  ca  ha  ha  ha  ca  ca  ha  ca  ca  ha  ca  ha  ha  ha  ca  ca  ca  ca  
ca  ha  ca  ca  ca  ha  ca  ca  ha  ha  ca  ca  ca  ha  ca  ca  ca  ha  ca  ha  
ha  ha  ca  ca  ha  ca  ca  ha  ca  ha  ha  ha  ca  ca  ca  ca  ca  ha  ca  ca  
ca  ha  ca  ca  ha  ha  ca  ca  ca  ha  ca  ca  ca  ha  ca  ha  ha  ha  ca  ca  
ha  ca  ca  ha  ca  ha  ha  ha  ca  ca  ca  ca  ca  ha  ca  ca  ca  ha  ca  ca  
ha  ha  ca  ca  ca  ha  ca  ca  ca  ha  ca  ha  ha  ha  ca  ca  ha  ca  ca  ha  
ca  ha  ha  ha  ca  ca  ca  ca  ca  ha  ca  ca  ca  ha  ca  ca  ha  ha  ca  ca  
ca  ha  ca  ca  ca  ha  ca  ha  ha  ha  ca  ca  ha  ca  ca  ha  ca  ha  ha  ha  
ca  ca  ca  ca  ca  ha  ca  ca  ca  ha  ca  ca  ha  ha  ca  ca  ca  ha  ca  ca  
ca  ha  ca  ha  ha  ha  ca  ca  ha  ca  ca  ha  ca  ha  ha  ha  ca  ca  ca  ca  
ca  ha  ca  ca  ca  ha  ca  ca  ha  ha  ca  ca  ca  ha  ca  ca  ca  ha  ca  ha  
ha  ha  ca  ca  ha  ca  ca  ha  ca  ha  ha  ha  ca  ca  ca  ca  ca  ha  ca  ca  
ca  ha  ca  ca  ha  ha  ca  ca  ca  ha  ca  ca  ca  ha  ca  ha  ha  ha  ca  ca  
ha  ca  ca  ha  ca  ha  ha  ha  ca  ca  ca  ca  ca  ha  ca  ca  ca  ha  ca  ca  
ha  ha  ca  ca  ca  ha  ca  ca  ca  ha  ca  ha  ha  ha  ca  ca  ha  ca  ca  ha  
ca  ha  ha  ha  ca  ca  ca  ca  ca  ha  ca  ca  ca  ha  ca  ca  ha  ha  ca  ca  
ca  ha  ca  ca  ca  ha  ca  ha  ha  ha  ca  ca  ha  ca  ca  ha  ca  ha  ha  ha  
ca  ca  ca  ca  ca  ha  ca  ca  ca  ha  ca  ca  ha  ha  ca  ca  ca  ha  ca  ca  
ca  ha  ca  ha  ha  ha  ca  ca  ha  ca  ca  ha  ca  ha  ha  ha  ca  ca  ca  ca  
ca  ha  ca  ca  ca  ha  ca  ca  ha  ha  ca  ca  ca  ha  ca  ca  ca  ha  ca  ha  
ha  ha  ca  ca  ha  ca  ca  ha  ca  ha  ha  ha  ca  ca  ca  ca  ca  ha  ca  ca  
ca  ha  ca  ca  ha  ha  ca  ca  ca  ha  ca  ca  ca  ha  ca  ha  ha  ha  ca  ca  
ha  ca  ca  ha  ca  ha  ha  ha  ca  ca  ca  ca  ca  ha  ca  ca  ca  ha  ca  ca  
ha  ha  ca  ca  ca  ha  ca  ca  ca  ha  ca  ha  ha  ha  ca  ca  ha  ca  ca  ha  
ca  ha  ha  ha  ca  ca  ca  ca  ca  ha  ca  ca  ca  ha  ca  ca  ha  ha  ca  ca  
ca  ha  ca  ca  ca  ha  ca  ha  ha  ha  ca  ca  ha  ca  ca  ha  ca  ha  ha  ha  
ca  ca  ca  ca  ca  ha  ca  ca  ca  ha  ca  ca  ha  ha  ca  ca  ca  ha  ca  ca  
ca  ha  ca  ha  ha  ha  ca  ca  ha  ca  ca  ha  ca  ha  ha  ha  ca  ca  ca  ca  
ca  ha  ca  ca  ca  ha  ca  ca  ha  ha  ca  ca  ca  ha  ca  ca  ca  ha  ca  ha  
ha  ha  ca  ca  ha  ca  ca  ha  ca  ha  ha  ha  ca  ca  ca  ca  ca  ha  ca  ca  
ca  ha  ca  ca  ha  ha  ca  ca  ca  ha  ca  ca  ca  ha  ca  ha  ha  ha  ca  ca  
ha  ca  ca  ha  ca  ha  ha  ha  ca  ca  ca  ca  ca  ha  ca  ca  ca  ha  ca  ca  
ha  ha  ca  ca  ca  ha  ca  ca  ca  ha  ca  ha  ha  ha  ca  ca  ha  ca  ca  ha  
ca  ha  ha  ha  ca  ca  ca  ca  ca  ha  ca  ca  ca  ha  ca  ca  ha  ha  ca  ca  
ca  ha  ca  ca  ca  ha  ca  ha  ha  ha  ca  ca  ha  ca  ca  ha  ca  ha  ha  ha  
ca  ca  ca  ca  ca  ha  ca  ca  ca  ha  ca  ca  ha  ha  ca  ca  ca  ha  ca  ca  
ca  ha  ca  ha  ha  ha  ca  ca  ha  ca  ca  ha  ca  ha  ha  ha  ca  ca  ca  ca  
ca  ha  ca  ca  ca  ha  ca  ca  ha  ha  ca  ca  ca  ha  ca  ca  ca  ha  ca  ha  
ha  ha  ca  ca  ha  ca  ca  ha  ca  ha  ha  ha  ca  ca  ca  ca  ca  ha  ca  ca  
ca  ha  ca  ca  ha  ha  ca  ca  ca  ha  ca  ca  ca  ha  ca  ha  ha  ha  ca  ca  
ha  ca  ca  ha  ca  ha  ha  ha  ca  ca  ca  ca  ca  ha  ca  ca  ca  ha  ca  ca  
ha  ha  ca  ca  ca  ha  ca  ca  ca  ha  ca  ha  ha  ha  ca  ca  ha  ca  ca  ha  
ca  ha  ha  ha  ca  ca  ca  ca  ca  ha  ca  ca  ca  ha  ca  ca  ha  ha  ca  ca  
ca  ha  ca  ca  ca  ha  ca  ha  ha  ha  ca  ca  ha  ca  ca  ha  ca  ha  ha  ha  
ca  ca  ca  ca  ca  ha  ca  ca  ca  ha  ca  ca  ha  ha  ca  ca  ca  ha  ca  ca  
ca  ha  ca  ha  ha  ha  ca  ca  ha  ca  ca  ha  ca  ha  ha  ha  ca  ca  ca  ca  
ca  ha  ca  ca  ca  ha  ca  ca  ha  ha  ca  ca  ca  ha  ca  ca  ca  ha  ca  ha  
ha  ha  ca  ca  ha  ca  ca  ha  ca  ha  ha  ha  ca  ca  ca  ca  ca  ha  ca  ca  
ca  ha  ca  ca  ha  ha  ca  ca  ca  ha  ca  ca  ca  ha  ca  ha  ha  ha  ca  ca  
ha  ca  ca  ha  ca  ha  ha  ha  ca  ca  ca  ca  ca  ha  ca  ca  ca  ha  ca  ca  
ha  ha  ca  ca  ca  ha  ca  ca  ca  ha  ca  ha  ha  ha  ca  ca  ha  ca  ca  ha  
ca  ha  ha  ha  ca  ca  ca  ca  ca  ha  ca  ca  ca  ha  ca  ca  ha  ha  ca  ca  
ca  ha  ca  ca  ca  ha  ca  ha  ha  ha  ca  ca  ha  ca  ca  ha  ca  ha  ha  ha  
ca  ca  ca  ca  ca  ha  ca  ca  ca  ha  ca  ca  ha  ha  ca  ca  ca  ha  ca  ca  
ca  ha  ca  ha  ha  ha  ca  ca  ha  ca  ca  ha  ca  ha  ha  ha  ca  ca  ca  ca  
ca  ha  ca  ca  ca  ha  ca  ca  ha  ha  ca  ca  ca  ha  ca  ca  ca  ha  ca  ha  
ha  ha  ca  ca  ha  ca  ca  ha  ca  ha  ha  ha  ca  ca  ca  ca  ca  ha  ca  ca  
ca  ha  ca  ca  ha  ha  ca  ca  ca  ha  ca  ca  ca  ha  ca  ha  ha  ha  ca  ca  
ha  ca  ca  ha  ca  ha  ha  ha  ca  ca  ca  ca  ca  ha  ca  ca  ca  ha  ca  ca  
ha  ha  ca  ca  ca  ha  ca  ca  ca  ha  ca  ha  ha  ha  ca  ca  ha  ca  ca  ha  
ca  ha  ha  ha  ca  ca  ca  ca  ca  ha  ca  ca  ca  ha  ca  ca  ha  ha  ca  ca  
ca  ha  ca  ca  ca  ha  ca  ha  ha  ha  ca  ca  ha  ca  ca  ha  ca  ha  ha  ha  
ca  ca  ca  ca  ca  ha  ca  ca  ca  ha  ca  ca  ha  ha  ca  ca  ca  ha  ca  ca  
ca  ha  ca  ha  ha  ha  ca  ca  ha  ca  ca  ha  ca  ha  ha  ha  ca  ca  ca  ca  
ca  ha  ca  ca  ca  ha  ca  ca  ha  ha  ca  ca  ca  ha  ca  ca  ca  ha  ca  ha  
ha  ha  ca  ca  ha  ca  ca  ha  ca  ha  ha  ha  ca  ca  ca  ca  ca  ha  ca  ca  
ca  ha  ca  ca  ha  ha  ca  ca  ca  ha  ca  ca  ca  ha  ca  ha  ha  ha  ca  ca  
ha  ca  ca  ha  ca  ha  ha  ha  ca  ca  ca  ca  ca  ha  ca  ca  ca  ha  ca  ca  
ha  ha  ca  ca  ca  ha  ca  ca  ca  ha  ca  ha  ha  ha  ca  ca  ha  ca  ca  ha  
ca  ha  ha  ha  ca  ca  ca  ca  ca  ha  ca  ca  ca  ha  ca  ca  ha  ha  ca  ca  
ca  ha  ca  ca  ca  ha  ca  ha  ha  ha  ca  ca  ha  ca  ca  ha  ca  ha  ha  ha  
ca  ca  ca  ca  ca  ha  ca  ca  ca  ha  ca  ca  ha  ha  ca  ca  ca  ha  ca  ca  
ca  ha  ca  ha  ha  ha  ca  ca  ha  ca  ca  ha  ca  ha  ha  ha  ca  ca  ca  ca  
ca  ha  ca  ca  ca  ha  ca  ca  ha  ha  ca  ca  ca  ha  ca  ca  ca  ha  ca  ha  
ha  ha  ca  ca  ha  ca  ca  ha  ca  ha  ha  ha  ca  ca  ca  ca  ca  ha  ca  ca  
ca  ha  ca  ca  ha  ha  ca  ca  ca  ha  ca  ca  ca  ha  ca  ha  ha  ha  ca  ca  
ha  ca  ca  ha  ca  ha  ha  ha  ca  ca  ca  ca  ca  ha  ca  ca  ca  ha  ca  ca  
ha  ha  ca  ca  ca  ha  ca  ca  ca  ha  ca  ha  ha  ha  ca  ca  ha  ca  ca  ha  
ca  ha  ha  ha  ca  ca  ca  ca  ca  ha  ca  ca  ca  ha  ca  ca  ha  ha  ca  ca  
ca  ha  ca  ca  ca  ha  ca  ha  ha  ha  ca  ca  ha  ca  ca  ha  ca  ha  ha  ha  
ca  ca  ca  ca  ca  ha  ca  ca  ca  ha  ca  ca  ha  ha  ca  ca  ca  ha  ca  ca  
ca  ha  ca  ha  ha  ha  ca  ca  ha  ca  ca  ha  ca  ha  ha  ha  ca  ca  ca  ca  
ca  ha  ca  ca  ca  ha  ca  ca  ha  ha  ca  ca  ca  ha  ca  ca  ca  ha  ca  ha  
ha  ha  ca  ca  ha  ca  ca  ha  ca  ha  ha  ha  ca  ca  ca  ca  ca  ha  ca  ca  
ca  ha  ca  ca  ha  ha  ca  ca  ca  ha  ca  ca  ca  ha  ca  ha  ha  ha  ca  ca  
ha  ca  ca  ha  ca  ha  ha  ha  ca  ca  ca  ca  ca  ha  ca  ca  ca  ha  ca  ca  
ha  ha  ca  ca  ca  ha  ca  ca  ca  ha  ca  ha  ha  ha  ca  ca  ha  ca  ca  ha  
ca  ha  ha  ha  ca  ca  ca  ca  ca  ha  ca  ca  ca  ha  ca  ca  ha  ha  ca  ca  
ca  ha  ca  ca  ca  ha  ca  ha  ha  ha  ca  ca  ha  ca  ca  ha  ca  ha  ha  ha  
ca  ca  ca  ca  ca  ha  ca  ca  ca  ha  ca  ca  ha  ha  ca  ca  ca  ha  ca  ca  
ca  ha  ca  ha  ha  ha  ca  ca  ha  ca  ca  ha  ca  ha  ha  ha  ca  ca  ca  ca  
ca  ha  ca  ca  ca  ha  ca  ca  ha  ha  ca  ca  ca  ha  ca  ca  ca  ha  ca  ha  
ha  ha  ca  ca  ha  ca  ca  ha  ca  ha  ha  ha  ca  ca  ca  ca  ca  ha  ca  ca  
ca  ha  ca  ca  ha  ha  ca  ca  ca  ha  ca  ca  ca  ha  ca  ha  ha  ha  ca  ca  
ha  ca  ca  ha  ca  ha  ha  ha  ca  ca  ca  ca  ca  ha  ca  ca  ca  ha  ca  ca  
ha  ha  ca  ca  ca  ha  ca  ca  ca  ha  ca  ha  ha  ha  ca  ca  ha  ca  ca  ha  
ca  ha  ha  ha  ca  ca  ca  ca  ca  ha  ca  ca  ca  ha  ca  ca  ha  ha  ca  ca  
ca  ha  ca  ca  ca  ha  ca  ha  ha  ha  ca  ca  ha  ca  ca  ha  ca  ha  ha  ha  
ca  ca  ca  ca  ca  ha  ca  ca  ca  ha  ca  ca  ha  ha  ca  ca  ca  ha  ca  ca  
ca  ha  ca  ha  ha  ha  ca  ca  ha  ca  ca  ha  ca  ha  ha  ha  ca  ca  ca  ca  
ca  ha  ca  ca  ca  ha  ca  ca  ha  ha  ca  ca  ca  ha  ca  ca  ca  ha  ca  ha  
ha  ha  ca  ca  ha  ca  ca  ha  ca  ha  ha  ha  ca  ca  ca  ca  ca  ha  ca  ca  
ca  ha  ca  ca  ha  ha  ca  ca  ca  ha  ca  ca  ca  ha  ca  ha  ha  ha  ca  ca  
ha  ca  ca  ha  ca  ha  ha  ha  ca  ca  ca  ca  ca  ha  ca  ca  ca  ha  ca  ca  
ha  ha  ca  ca  ca  ha  ca  ca  ca  ha  ca  ha  ha  ha  ca  ca  ha  ca  ca  ha  
ca  ha  ha  ha  ca  ca  ca  ca  ca  ha  ca  ca  ca  ha  ca  ca  ha  ha  ca  ca  
ca  ha  ca  ca  ca  ha  ca  ha  ha  ha  ca  ca  ha  ca  ca  ha  ca  ha  ha  ha  
ca  ca  ca  ca  ca  ha  ca  ca  ca  ha  ca  ca  ha  ha  ca  ca  ca  ha  ca  ca  
ca  ha  ca  ha  ha  ha  ca  ca  ha  ca  ca  ha  ca  ha  ha  ha  ca  ca  ca  ca  
ca  ha  ca  ca  ca  ha  ca  ca  ha  ha  ca  ca  ca  ha  ca  ca  ca  ha  ca  ha  
ha  ha  ca  ca  ha  ca  ca  ha  ca  ha  ha  ha  ca  ca  ca  ca  ca  ha  ca  ca  
ca  ha  ca  ca  ha  ha  ca  ca  ca  ha  ca  ca  ca  ha  ca  ha  ha  ha  ca  ca  
ha  ca  ca  ha  ca  ha  ha  ha  ca  ca  ca  ca  ca  ha  ca  ca  ca  ha  ca  ca  
ha  ha  ca  ca  ca  ha  ca  ca  ca  ha  ca  ha  ha  ha  ca  ca  ha  ca  ca  ha  
ca  ha  ha  ha  ca  ca  ca  ca  ca  ha  ca  ca  ca  ha  ca  ca  ha  ha  ca  ca  
ca  ha  ca  ca  ca  ha  ca  ha  ha  ha  ca  ca  ha  ca  ca  ha  ca  ha  ha  ha  
ca  ca  ca  ca  ca  ha  ca  ca  ca  ha  ca  ca  ha  ha  ca  ca  ca  ha  ca  ca  
ca  ha  ca  ha  ha  ha  ca  ca  ha  ca  ca  ha  ca  ha  ha  ha  ca  ca  ca  ca  
ca  ha  ca  ca  ca  ha  ca  ca  ha  ha  ca  ca  ca  ha  ca  ca  ca  ha  ca  ha  
ha  ha  ca  ca  ha  ca  ca  ha  ca  ha  ha  ha  ca  ca  ca  ca  ca  ha  ca  ca  
ca  ha  ca  ca  ha  ha  ca  ca  ca  ha  ca  ca  ca  ha  ca  ha  ha  ha  ca  ca  
ha  ca  ca  ha  ca  ha  ha  ha  ca  ca  ca  ca  ca  ha  ca  ca  ca  ha  ca  ca  
ha  ha  ca  ca  ca  ha  ca  ca  ca  ha  ca  ha  ha  ha  ca  ca  ha  ca  ca  ha  
ca  ha  ha  ha  ca  ca  ca  ca  ca  ha  ca  ca  ca  ha  ca  ca  ha  ha  ca  ca  
ca  ha  ca  ca  ca  ha  ca  ha  ha  ha  ca  ca  ha  ca  ca  ha  ca  ha  ha  ha  
ca  ca  ca  ca  ca  ha  ca  ca  ca  ha  ca  ca  ha  ha  ca  ca  ca  ha  ca  ca  
ca  ha  ca  ha  ha  ha  ca  ca  ha  ca  ca  ha  ca  ha  ha  ha  ca  ca  ca  ca  
ca  ha  ca  ca  ca  ha  ca  ca  ha  ha  ca  ca  ca  ha  ca  ca  ca  ha  ca  ha  
ha  ha  ca  ca  ha  ca  ca  ha  ca  ha  ha  ha  ca  ca  ca  ca  ca  ha  ca  ca  
ca  ha  ca  ca  ha  ha  ca  ca  ca  ha  ca  ca  ca  ha  ca  ha  ha  ha  ca  ca  
ha  ca  ca  ha  ca  ha  ha  ha  ca  ca  ca  ca  ca  ha  ca  ca  ca  ha  ca  ca  
ha  ha  ca  ca  ca  ha  ca  ca  ca  ha  ca  ha  ha  ha  ca  ca  ha  ca  ca  ha  
ca  ha  ha  ha  ca  ca  ca  ca  ca  ha  ca  ca  ca  ha  ca  ca  ha  ha  ca  ca  
ca  ha  ca  ca  ca  ha  ca  ha  ha  ha  ca  ca  ha  ca  ca  ha  ca  ha  ha  ha  
ca  ca  ca  ca  ca  ha  ca  ca  ca  ha  ca  ca  ha  ha  ca  ca  ca  ha  ca  ca  
ca  ha  ca  ha  ha  ha  ca  ca  ha  ca  ca  ha  ca  ha  ha  ha  ca  ca  ca  ca  
ca  ha  ca  ca  ca  ha  ca  ca  ha  ha  ca  ca  ca  ha  ca  ca  ca  ha  ca  ha  
ha  ha  ca  ca  ha  ca  ca  ha  ca  ha  ha  ha  ca  ca  ca  ca  ca  ha  ca  ca  
ca  ha  ca  ca  ha  ha  ca  ca  ca  ha  ca  ca  ca  ha  ca  ha  ha  ha  ca  ca  
ha  ca  ca  ha  ca  ha  ha  ha  ca  ca  ca  ca  ca  ha  ca  ca  ca  ha  ca  ca  
ha  ha  ca  ca  ca  ha  ca  ca  ca  ha  ca  ha  ha  ha  ca  ca  ha  ca  ca  ha  
ca  ha  ha  ha  ca  ca  ca  ca  ca  ha  ca  ca  ca  ha  ca  ca  ha  ha  ca  ca  
ca  ha  ca  ca  ca  ha  ca  ha  ha  ha  ca  ca  ha  ca  ca  ha  ca  ha  ha  ha  
ca  ca  ca  ca  ca  ha  ca  ca  ca  ha  ca  ca  ha  ha  ca  ca  ca  ha  ca  ca  
ca  ha  ca  ha  ha  ha  ca  ca  ha  ca  ca  ha  ca  ha  ha  ha  ca  ca  ca  ca  
ca  ha  ca  ca  ca  ha  ca  ca  ha  ha  ca  ca  ca  ha  ca  ca  ca  ha  ca  ha  
ha  ha  ca  ca  ha  ca  ca  ha  ca  ha  ha  ha  ca  ca  ca  ca  ca  ha  ca  ca  
ca  ha  ca  ca  ha  ha  ca  ca  ca  ha  ca  ca  ca  ha  ca  ha  ha  ha  ca  ca  
ha  ca  ca  ha  ca  ha  ha  ha  ca  ca  ca  ca  ca  ha  ca  ca  ca  ha  ca  ca  
ha  ha  ca  ca  ca  ha  ca  ca  ca  ha  ca  ha  ha  ha  ca  ca  ha  ca  ca  ha  
ca  ha  ha  ha  ca  ca  ca  ca  ca  ha  ca  ca  ca  ha  ca  ca  ha  ha  ca  ca  
ca  ha  ca  ca  ca  ha  ca  ha  ha  ha  ca  ca  ha  ca  ca  ha  ca  ha  ha  ha  
ca  ca  ca  ca  ca  ha  ca  ca  ca  ha  ca  ca  ha  ha  ca  ca  ca  ha  ca  ca  
ca  ha  ca  ha  ha  ha  ca  ca  ha  ca  ca  ha  ca  ha  ha  ha  ca  ca  ca  ca  
ca  ha  ca  ca  ca  ha  ca  ca  ha  ha  ca  ca  ca  ha  ca  ca  ca  ha  ca  ha  
ha  ha  ca  ca  ha  ca  ca  ha  ca  ha  ha  ha  ca  ca  ca  ca  ca  ha  ca  ca  
ca  ha  ca  ca  ha  ha  ca  ca  ca  ha  ca  ca  ca  ha  ca  ha  ha  ha  ca  ca  
ha  ca  ca  ha  ca  ha  ha  ha  ca  ca  ca  ca  ca  ha  ca  ca  ca  ha  ca  ca  
ha  ha  ca  ca  ca  ha  ca  ca  ca  ha  ca  ha  ha  ha  ca  ca  ha  ca  ca  ha  
ca  ha  ha  ha  ca  ca  ca  ca  ca  ha  ca  ca  ca  ha  ca  ca  ha  ha  ca  ca  
ca  ha  ca  ca  ca  ha  ca  ha  ha  ha  ca  ca  ha  ca  ca  ha  ca  ha  ha  ha  
ca  ca  ca  ca  ca  ha  ca  ca  ca  ha  ca  ca  ha  ha  ca  ca  ca  ha  ca  ca  
ca  ha  ca  ha  ha  ha  ca  ca  ha  ca  ca  ha  ca  ha  ha  ha  ca  ca  ca  ca  
ca  ha  ca  ca  ca  ha  ca  ca  ha  ha  ca  ca  ca  ha  ca  ca  ca  ha  ca  ha  
ha  ha  ca  ca  ha  ca  ca  ha  ca  ha  ha  ha  ca  ca  ca  ca  ca  ha  ca  ca  
ca  ha  ca  ca  ha  ha  ca  ca  ca  ha  ca  ca  ca  ha  ca  ha  ha  ha  ca  ca  
ha  ca  ca  ha  ca  ha  ha  ha  ca  ca  ca  ca  ca  ha  ca  ca  ca  ha  ca  ca  
ha  ha  ca  ca  ca  ha  ca  ca  ca  ha  ca  ha  ha  ha  ca  ca  ha  ca  ca  ha  
ca  ha  ha  ha  ca  ca  ca  ca  ca  ha  ca  ca  ca  ha  ca  ca  ha  ha  ca  ca  
ca  ha  ca  ca  ca  ha  ca  ha  ha  ha  ca  ca  ha  ca  ca  ha  ca  ha  ha  ha  
ca  ca  ca  ca  ca  ha  ca  ca  ca  ha  ca  ca  ha  ha  ca  ca  ca  ha  ca  ca  
ca  ha  ca  ha  ha  ha  ca  ca  ha  ca  ca  ha  ca  ha  ha  ha  ca  ca  ca  ca  
ca  ha  ca  ca  ca  ha  ca  ca  ha  ha  ca  ca  ca  ha  ca  ca  ca  ha  ca  ha  
ha  ha  ca  ca  ha  ca  ca  ha  ca  ha  ha  ha  ca  ca  ca  ca  ca  ha  ca  ca  
ca  ha  ca  ca  ha  ha  ca  ca  ca  ha  ca  ca  ca  ha  ca  ha  ha  ha  ca  ca  
ha  ca  ca  ha  ca  ha  ha  ha  ca  ca  ca  ca  ca  ha  ca  ca  ca  ha  ca  ca  
ha  ha  ca  ca  ca  ha  ca  ca  ca  ha  ca  ha  ha  ha  ca  ca  ha  ca  ca  ha  
ca  ha  ha  ha  ca  ca  ca  ca  ca  ha  ca  ca  ca  ha  ca  ca  ha  ha  ca  ca  
ca  ha  ca  ca  ca  ha  ca  ha  ha  ha  ca  ca  ha  ca  ca  ha  ca  ha  ha  ha  
ca  ca  ca  ca  ca  ha  ca  ca  ca  ha  ca  ca  ha  ha  ca  ca  ca  ha  ca  ca  
ca  ha  ca  ha  ha  ha  ca  ca  ha  ca  ca  ha  ca  ha  ha  ha  ca  ca  ca  ca  
ca  ha  ca  ca  ca  ha  ca  ca  ha  ha  ca  ca  ca  ha  ca  ca  ca  ha  ca  ha  
ha  ha  ca  ca  ha  ca  ca  ha  ca  ha  ha  ha  ca  ca  ca  ca  ca  ha  ca  ca  
ca  ha  ca  ca  ha  ha  ca  ca  ca  ha  ca  ca  ca  ha  ca  ha  ha  ha  ca  ca  
ha  ca  ca  ha  ca  ha  ha  ha  ca  ca  ca  ca  ca  ha  ca  ca  ca  ha  ca  ca  
ha  ha  ca  ca  ca  ha  ca  ca  ca  ha  ca  ha  ha  ha  ca  ca  ha  ca  ca  ha  
ca  ha  ha  ha  ca  ca  ca  ca  ca  ha  ca  ca  ca  ha  ca  ca  ha  ha  ca  ca  
ca  ha  ca  ca  ca  ha  ca  ha  ha  ha  ca  ca  ha  ca  ca  ha  ca  ha  ha  ha  
ca  ca  ca  ca  ca  ha  ca  ca  ca  ha  ca  ca  ha  ha  ca  ca  ca  ha  ca  ca  
ca  ha  ca  ha  ha  ha  ca  ca  ha  ca  ca  ha  ca  ha  ha  ha  ca  ca  ca  ca  
ca  ha  ca  ca  ca  ha  ca  ca  ha  ha  ca  ca  ca  ha  ca  ca  ca  ha  ca  ha  
ha  ha  ca  ca  ha  ca  ca  ha  ca  ha  ha  ha  ca  ca  ca  ca  ca  ha  ca  ca  
ca  ha  ca  ca  ha  ha  ca  ca  ca  ha  ca  ca  ca  ha  ca  ha  ha  ha  ca  ca  
ha  ca  ca  ha  ca  ha  ha  ha  ca  ca  ca  ca  ca  ha  ca  ca  ca  ha  ca  ca  
ha  ha  ca  ca  ca  ha  ca  ca  ca  ha  ca  ha  ha  ha  ca  ca  ha  ca  ca  ha  
ca  ha  ha  ha  ca  ca  ca  ca  ca  ha  ca  ca  ca  ha  ca  ca  ha  ha  ca  ca  
ca  ha  ca  ca  ca  ha  ca  ha  ha  ha  ca  ca  ha  ca  ca  ha  ca  ha  ha  ha  
ca  ca  ca  ca  ca  ha  ca  ca  ca  ha  ca  ca  ha  ha  ca  ca  ca  ha  ca  ca  
ca  ha  ca  ha  ha  ha  ca  ca  ha  ca  ca  ha  ca  ha  ha  ha  ca  ca  ca  ca  
ca  ha  ca  ca  ca  ha  ca  ca  ha  ha  ca  ca  ca  ha  ca  ca  ca  ha  ca  ha  
ha  ha  ca  ca  ha  ca  ca  ha  ca  ha  ha  ha  ca  ca  ca  ca  ca  ha  ca  ca  
ca  ha  ca  ca  ha  ha  ca  ca  ca  ha  ca  ca  ca  ha  ca  ha  ha  ha  ca  ca  
ha  ca  ca  ha  ca  ha  ha  ha  ca  ca  ca  ca  ca  ha  ca  ca  ca  ha  ca  ca  
ha  ha  ca  ca  ca  ha  ca  ca  ca  ha  ca  ha  ha  ha  ca  ca  ha  ca  ca  ha  
ca  ha  ha  ha  ca  ca  ca  ca  ca  ha  ca  ca  ca  ha  ca  ca  ha  ha  ca  ca  
ca  ha  ca  ca  ca  ha  ca  ha  ha  ha  ca  ca  ha  ca  ca  ha  ca  ha  ha  ha  
ca  ca  ca  ca  ca  ha  ca  ca  ca  ha  ca  ca  ha  ha  ca  ca  ca  ha  ca  ca  
ca  ha  ca  ha  ha  ha  ca  ca  ha  ca  ca  ha  ca  ha  ha  ha  ca  ca  ca  ca  
ca  ha  ca  ca  ca  ha  ca  ca  ha  ha  ca  ca  ca  ha  ca  ca  ca  ha  ca  ha  
ha  ha  ca  ca  ha  ca  ca  ha  ca  ha  ha  ha  ca  ca  ca  ca  ca  ha  ca  ca  
ca  ha  ca  ca  ha  ha  ca  ca  ca  ha  ca  ca  ca  ha  ca  ha  ha  ha  ca  ca  
ha  ca  ca  ha  ca  ha  ha  ha  ca  ca  ca  ca  ca  ha  ca  ca  ca  ha  ca  ca  
ha  ha  ca  ca  ca  ha  ca  ca  ca  ha  ca  ha  ha  ha  ca  ca  ha  ca  ca  ha  
ca  ha  ha  ha  ca  ca  ca  ca  ca  ha  ca  ca  ca  ha  ca  ca  ha  ha  ca  ca  
ca  ha  ca  ca  ca  ha  ca  ha  ha  ha  ca  ca  ha  ca  ca  ha  ca  ha  ha  ha  
ca  ca  ca  ca  ca  ha  ca  ca  ca  ha  ca  ca  ha  ha  ca  ca  ca  ha  ca  ca  
ca  ha  ca  ha  ha  ha  ca  ca  ha  ca  ca  ha  ca  ha  ha  ha  ca  ca  ca  ca  
ca  ha  ca  ca  ca  ha  ca  ca  ha  ha  ca  ca  ca  ha  ca  ca  ca  ha  ca  ha  
ha  ha  ca  ca  ha  ca  ca  ha  ca  ha  ha  ha  ca  ca  ca  ca  ca  ha  ca  ca  
ca  ha  ca  ca  ha  ha  ca  ca  ca  ha  ca  ca  ca  ha  ca  ha  ha  ha  ca  ca  
ha  ca  ca  ha  ca  ha  ha  ha  ca  ca  ca  ca  ca  ha  ca  ca  ca  ha  ca  ca  
ha  ha  ca  ca  ca  ha  ca  ca  ca  ha  ca  ha  ha  ha  ca  ca  ha  ca  ca  ha  
ca  ha  ha  ha  ca  ca  ca  ca  ca  ha  ca  ca  ca  ha  ca  ca  ha  ha  ca  ca  
ca  ha  ca  ca  ca  ha  ca  ha  ha  ha  ca  ca  ha  ca  ca  ha  ca  ha  ha  ha  
ca  ca  ca  ca  ca  ha  ca  ca  ca  ha  ca  ca  ha  ha  ca  ca  ca  ha  ca  ca  
ca  ha  ca  ha  ha  ha  ca  ca  ha  ca  ca  ha  ca  ha  ha  ha  ca  ca  ca  ca  
ca  ha  ca  ca  ca  ha  ca  ca  ha  ha  ca  ca  ca  ha  ca  ca  ca  ha  ca  ha  
ha  ha  ca  ca  ha  ca  ca  ha  ca  ha  ha  ha  ca  ca  ca  ca  ca  ha  ca  ca  
ca  ha  ca  ca  ha  ha  ca  ca  ca  ha  ca  ca  ca  ha  ca  ha  ha  ha  ca  ca  
ha  ca  ca  ha  ca  ha  ha  ha  ca  ca  ca  ca  ca  ha  ca  ca  ca  ha  ca  ca  
ha  ha  ca  ca  ca  ha  ca  ca  ca  ha  ca  ha  ha  ha  ca  ca  ha  ca  ca  ha  
ca  ha  ha  ha  ca  ca  ca  ca  ca  ha  ca  ca  ca  ha  ca  ca  ha  ha  ca  ca  
ca  ha  ca  ca  ca  ha  ca  ha  ha  ha  ca  ca  ha  ca  ca  ha  ca  ha  ha  ha  
ca  ca  ca  ca  ca  ha  ca  ca  ca  ha  ca  ca  ha  ha  ca  ca  ca  ha  ca  ca  
ca  ha  ca  ha  ha  ha  ca  ca  ha  ca  ca  ha  ca  ha  ha  ha  ca  ca  ca  ca  
ca  ha  ca  ca  ca  ha  ca  ca  ha  ha  ca  ca  ca  ha  ca  ca  ca  ha  ca  ha  
ha  ha  ca  ca  ha  ca  ca  ha  ca  ha  ha  ha  ca  ca  ca  ca  ca  ha  ca  ca  
ca  ha  ca  ca  ha  ha  ca  ca  ca  ha  ca  ca  ca  ha  ca  ha  ha  ha  ca  ca  
ha  ca  ca  ha  ca  ha  ha  ha  ca  ca  ca  ca  ca  ha  ca  ca  ca  ha  ca  ca  
ha  ha  ca  ca  ca  ha  ca  ca  ca  ha  ca  ha  ha  ha  ca  ca  ha  ca  ca  ha  
ca  ha  ha  ha  ca  ca  ca  ca  ca  ha  ca  ca  ca  ha  ca  ca  ha  ha  ca  ca  
ca  ha  ca  ca  ca  ha  ca  ha  ha  ha  ca  ca  ha  ca  ca  ha  ca  ha  ha  ha  
ca  ca  ca  ca  ca  ha  ca  ca  ca  ha  ca  ca  ha  ha  ca  ca  ca  ha  ca  ca  
ca  ha  ca  ha  ha  ha  ca  ca  ha  ca  ca  ha  ca  ha  ha  ha  ca  ca  ca  ca  
ca  ha  ca  ca  ca  ha  ca  ca  ha  ha  ca  ca  ca  ha  ca  ca  ca  ha  ca  ha  
ha  ha  ca  ca  ha  ca  ca  ha  ca  ha  ha  ha  ca  ca  ca  ca  ca  ha  ca  ca  
ca  ha  ca  ca  ha  ha  ca  ca  ca  ha  ca  ca  ca  ha  ca  ha  ha  ha  ca  ca  
ha  ca  ca  ha  ca  ha  ha  ha  ca  ca  ca  ca  ca  ha  ca  ca  ca  ha  ca  ca  
ha  ha  ca  ca  ca  ha  ca  ca  ca  ha  ca  ha  ha  ha  ca  ca  ha  ca  ca  ha  
ca  ha  ha  ha  ca  ca  ca  ca  ca  ha  ca  ca  ca  ha  ca  ca  ha  ha  ca  ca  
ca  ha  ca  ca  ca  ha  ca  ha  ha  ha  ca  ca  ha  ca  ca  ha  ca  ha  ha  ha  
ca  ca  ca  ca  ca  ha  ca  ca  ca  ha  ca  ca  ha  ha  ca  ca  ca  ha  ca  ca  
ca  ha  ca  ha  ha  ha  ca  ca  ha  ca  ca  ha  ca  ha  ha  ha  ca  ca  ca  ca  
ca  ha  ca  ca  ca  ha  ca  ca  ha  ha  ca  ca  ca  ha  ca  ca  ca  ha  ca  ha  
ha  ha  ca  ca  ha  ca  ca  ha  ca  ha  ha  ha  ca  ca  ca  ca  ca  ha  ca  ca  
ca  ha  ca  ca  ha  ha  ca  ca  ca  ha  ca  ca  ca  ha  ca  ha  ha  ha  ca  ca  
ha  ca  ca  ha  ca  ha  ha  ha  ca  ca  ca  ca  ca  ha  ca  ca  ca  ha  ca  ca  
ha  ha  ca  ca  ca  ha  ca  ca  ca  ha  ca  ha  ha  ha  ca  ca  ha  ca  ca  ha  
ca  ha  ha  ha  ca  ca  ca  ca  ca  ha  ca  ca  ca  ha  ca  ca  ha  ha  ca  ca  
ca  ha  ca  ca  ca  ha  ca  ha  ha  ha  ca  ca  ha  ca  ca  ha  ca  ha  ha  ha  
ca  ca  ca  ca  ca  ha  ca  ca  ca  ha  ca  ca  ha  ha  ca  ca  ca  ha  ca  ca  
ca  ha  ca  ha  ha  ha  ca  ca  ha  ca  ca  ha  ca  ha  ha  ha  ca  ca  ca  ca  
ca  ha  ca  ca  ca  ha  ca  ca  ha  ha  ca  ca  ca  ha  ca  ca  ca  ha  ca  ha  
ha  ha  ca  ca  ha  ca  ca  ha  ca  ha  ha  ha  ca  ca  ca  ca  ca  ha  ca  ca  
ca  ha  ca  ca  ha  ha  ca  ca  ca  ha  ca  ca  ca  ha  ca  ha  ha  ha  ca  ca  
ha  ca  ca  ha  ca  ha  ha  ha  ca  ca  ca  ca  ca  ha  ca  ca  ca  ha  ca  ca  
ha  ha  ca  ca  ca  ha  ca  ca  ca  ha  ca  ha  ha  ha  ca  ca  ha  ca  ca  ha  
ca  ha  ha  ha  ca  ca  ca  ca  ca  ha  ca  ca  ca  ha  ca  ca  ha  ha  ca  ca  
ca  ha  ca  ca  ca  ha  ca  ha  ha  ha  ca  ca  ha  ca  ca  ha  ca  ha  ha  ha  
ca  ca  ca  ca  ca  ha  ca  ca  ca  ha  ca  ca  ha  ha  ca  ca  ca  ha  ca  ca  
ca  ha  ca  ha  ha  ha  ca  ca  ha  ca  ca  ha  ca  ha  ha  ha  ca  ca  ca  ca  
ca  ha  ca  ca  ca  ha  ca  ca  ha  ha  ca  ca  ca  ha  ca  ca  ca  ha  ca  ha  
ha  ha  ca  ca  ha  ca  ca  ha  ca  ha  ha  ha  ca  ca  ca  ca  ca  ha  ca  ca  
ca  ha  ca  ca  ha  ha  ca  ca  ca  ha  ca  ca  ca  ha  ca  ha  ha  ha  ca  ca  
ha  ca  ca  ha  ca  ha  ha  ha  ca  ca  ca  ca  ca  ha  ca  ca  ca  ha  ca  ca  
ha  ha  ca  ca  ca  ha  ca  ca  ca  ha  ca  ha  ha  ha  ca  ca  ha  ca  ca  ha  
ca  ha  ha  ha  ca  ca  ca  ca  ca  ha  ca  ca  ca  ha  ca  ca  ha  ha  ca  ca  
ca  ha  ca  ca  ca  ha  ca  ha  ha  ha  ca  ca  ha  ca  ca  ha  ca  ha  ha  ha  
ca  ca  ca  ca  ca  ha  ca  ca  ca  ha  ca  ca  ha  ha  ca  ca  ca  ha  ca  ca  
ca  ha  ca  ha  ha  ha  ca  ca  ha  ca  ca  ha  ca  ha  ha  ha  ca  ca  ca  ca  
ca  ha  ca  ca  ca  ha  ca  ca  ha  ha  ca  ca  ca  ha  ca  ca  ca  ha  ca  ha  
ha  ha  ca  ca  ha  ca  ca  ha  ca  ha  ha  ha  ca  ca  ca  ca  ca  ha  ca  ca  
ca  ha  ca  ca  ha  ha  ca  ca  ca  ha  ca  ca  ca  ha  ca  ha  ha  ha  ca  ca  
ha  ca  ca  ha  ca  ha  ha  ha  ca  ca  ca  ca  ca  ha  ca  ca  ca  ha  ca  ca  
ha  ha  ca  ca  ca  ha  ca  ca  ca  ha  ca  ha  ha  ha  ca  ca  ha  ca  ca  ha  
ca  ha  ha  ha  ca  ca  ca  ca  ca  ha  ca  ca  ca  ha  ca  ca  ha  ha  ca  ca  
ca  ha  ca  ca  ca  ha  ca  ha  ha  ha  ca  ca  ha  ca  ca  ha  ca  ha  ha  ha  
ca  ca  ca  ca  ca  ha  ca  ca  ca  ha  ca  ca  ha  ha  ca  ca  ca  ha  ca  ca  
ca  ha  ca  ha  ha  ha  ca  ca  ha  ca  ca  ha  ca  ha  ha  ha  ca  ca  ca  ca  
ca  ha  ca  ca  ca  ha  ca  ca  ha  ha  ca  ca  ca  ha  ca  ca  ca  ha  ca  ha  
ha  ha  ca  ca  ha  ca  ca  ha  ca  ha  ha  ha  ca  ca  ca  ca  ca  ha  ca  ca  
ca  ha  ca  ca  ha  ha  ca  ca  ca  ha  ca  ca  ca  ha  ca  ha  ha  ha  ca  ca  
ha  ca  ca  ha  ca  ha  ha  ha  ca  ca  ca  ca  ca  ha  ca  ca  ca  ha  ca  ca  
ha  ha  ca  ca  ca  ha  ca  ca  ca  ha  ca  ha  ha  ha  ca  ca  ha  ca  ca  ha  
ca  ha  ha  ha  ca  ca  ca  ca  ca  ha  ca  ca  ca  ha  ca  ca  ha  ha  ca  ca  
ca  ha  ca  ca  ca  ha  ca  ha  ha  ha  ca  ca  ha  ca  ca  ha  ca  ha  ha  ha  
ca  ca  ca  ca  ca  ha  ca  ca  ca  ha  ca  ca  ha  ha  ca  ca  ca  ha  ca  ca  
ca  ha  ca  ha  ha  ha  ca  ca  ha  ca  ca  ha  ca  ha  ha  ha  ca  ca  ca  ca  
ca  ha  ca  ca  ca  ha  ca  ca  ha  ha  ca  ca  ca  ha  ca  ca  ca  ha  ca  ha  
ha  ha  ca  ca  ha  ca  ca  ha  ca  ha  ha  ha  ca  ca  ca  ca  ca  ha  ca  ca  
ca  ha  ca  ca  ha  ha  ca  ca  ca  ha  ca  ca  ca  ha  ca  ha  ha  ha  ca  ca  
ha  ca  ca  ha  ca  ha  ha  ha  ca  ca  ca  ca  ca  ha  ca  ca  ca  ha  ca  ca  
ha  ha  ca  ca  ca  ha  ca  ca  ca  ha  ca  ha  ha  ha  ca  ca  ha  ca  ca  ha  
ca  ha  ha  ha  ca  ca  ca  ca  ca  ha  ca  ca  ca  ha  ca  ca  ha  ha  ca  ca  
ca  ha  ca  ca  ca  ha  ca  ha  ha  ha  ca  ca  ha  ca  ca  ha  ca  ha  ha  ha  
ca  ca  ca  ca  ca  ha  ca  ca  ca  ha  ca  ca  ha  ha  ca  ca  ca  ha  ca  ca  
ca  ha  ca  ha  ha  ha  ca  ca  ha  ca  ca  ha  ca  ha  ha  ha  ca  ca  ca  ca  
ca  ha  ca  ca  ca  ha  ca  ca  ha  ha  ca  ca  ca  ha  ca  ca  ca  ha  ca  ha  
ha  ha  ca  ca  ha  ca  ca  ha  ca  ha  ha  ha  ca  ca  ca  ca  ca  ha  ca  ca  
ca  ha  ca  ca  ha  ha  ca  ca  ca  ha  ca  ca  ca  ha  ca  ha  ha  ha  ca  ca  
ha  ca  ca  ha  ca  ha  ha  ha  ca  ca  ca  ca  ca  ha  ca  ca  ca  ha  ca  ca  
ha  ha  ca  ca  ca  ha  ca  ca  ca  ha  ca  ha  ha  ha  ca  ca  ha  ca  ca  ha  
ca  ha  ha  ha  ca  ca  ca  ca  ca  ha  ca  ca  ca  ha  ca  ca  ha  ha  ca  ca  
ca  ha  ca  ca  ca  ha  ca  ha  ha  ha  ca  ca  ha  ca  ca  ha  ca  ha  ha  ha  
ca  ca  ca  ca  ca  ha  ca  ca  ca  ha  ca  ca  ha  ha  ca  ca  ca  ha  ca  ca  
ca  ha  ca  ha  ha  ha  ca  ca  ha  ca  ca  ha  ca  ha  ha  ha  ca  ca  ca  ca  
ca  ha  ca  ca  ca  ha  ca  ca  ha  ha  ca  ca  ca  ha  ca  ca  ca  ha  ca  ha  
ha  ha  ca  ca  ha  ca  ca  ha  ca  ha  ha  ha  ca  ca  ca  ca  ca  ha  ca  ca  
ca  ha  ca  ca  ha  ha  ca  ca  ca  ha  ca  ca  ca  ha  ca  ha  ha  ha  ca  ca  
ha  ca  ca  ha  ca  ha  ha  ha  ca  ca  ca  ca  ca  ha  ca  ca  ca  ha  ca  ca  
ha  ha  ca  ca  ca  ha  ca  ca  ca  ha  ca  ha  ha  ha  ca  ca  ha  ca  ca  ha  
ca  ha  ha  ha  ca  ca  ca  ca  ca  ha  ca  ca  ca  ha  ca  ca  ha  ha  ca  ca  
ca  ha  ca  ca  ca  ha  ca  ha  ha  ha  ca  ca  ha  ca  ca  ha  ca  ha  ha  ha  
ca  ca  ca  ca  ca  ha  ca  ca  ca  ha  ca  ca  ha  ha  ca  ca  ca  ha  ca  ca  
ca  ha  ca  ha  ha  ha  ca  ca  ha  ca  ca  ha  ca  ha  ha  ha  ca  ca  ca  ca  
ca  ha  ca  ca  ca  ha  ca  ca  ha  ha  ca  ca  ca  ha  ca  ca  ca  ha  ca  ha  
ha  ha  ca  ca  ha  ca  ca  ha  ca  ha  ha  ha  ca  ca  ca  ca  ca  ha  ca  ca  
ca  ha  ca  ca  ha  ha  ca  ca  ca  ha  ca  ca  ca  ha  ca  ha  ha  ha  ca  ca  
ha  ca  ca  ha  ca  ha  ha  ha  ca  ca  ca  ca  ca  ha  ca  ca  ca  ha  ca  ca  
ha  ha  ca  ca  ca  ha  ca  ca  ca  ha  ca  ha  ha  ha  ca  ca  ha  ca  ca  ha  
ca  ha  ha  ha  ca  ca  ca  ca  ca  ha  ca  ca  ca  ha  ca  ca  ha  ha  ca  ca  
ca  ha  ca  ca  ca  ha  ca  ha  ha  ha  ca  ca  ha  ca  ca  ha  ca  ha  ha  ha  
ca  ca  ca  ca  ca  ha  ca  ca  ca  ha  ca  ca  ha  ha  ca  ca  ca  ha  ca  ca  
ca  ha  ca  ha  ha  ha  ca  ca  ha  ca  ca  ha  ca  ha  ha  ha  ca  ca  ca  ca  
ca  ha  ca  ca  ca  ha  ca  ca  ha  ha  ca  ca  ca  ha  ca  ca  ca  ha  ca  ha  
ha  ha  ca  ca  ha  ca  ca  ha  ca  ha  ha  ha  ca  ca  ca  ca  ca  ha  ca  ca  
ca  ha  ca  ca  ha  ha  ca  ca  ca  ha  ca  ca  ca  ha  ca  ha  ha  ha  ca  ca  
ha  ca  ca  ha  ca  ha  ha  ha  ca  ca  ca  ca  ca  ha  ca  ca  ca  ha  ca  ca  
ha  ha  ca  ca  ca  ha  ca  ca  ca  ha  ca  ha  ha  ha  ca  ca  ha  ca  ca  ha  
ca  ha  ha  ha  ca  ca  ca  ca  ca  ha  ca  ca  ca  ha  ca  ca  ha  ha  ca  ca  
ca  ha  ca  ca  ca  ha  ca  ha  ha  ha  ca  ca  ha  ca  ca  ha  ca  ha  ha  ha  
ca  ca  ca  ca  ca  ha  ca  ca  ca  ha  ca  ca  ha  ha  ca  ca  ca  ha  ca  ca  
ca  ha  ca  ha  ha  ha  ca  ca  ha  ca  ca  ha  ca  ha  ha  ha  ca  ca  ca  ca  
ca  ha  ca  ca  ca  ha  ca  ca  ha  ha  ca  ca  ca  ha  ca  ca  ca  ha  ca  ha  
ha  ha  ca  ca  ha  ca  ca  ha  ca  ha  ha  ha  ca  ca  ca  ca  ca  ha  ca  ca  
ca  ha  ca  ca  ha  ha  ca  ca  ca  ha  ca  ca  ca  ha  ca  ha  ha  ha  ca  ca  
ha  ca  ca  ha  ca  ha  ha  ha  ca  ca  ca  ca  ca  ha  ca  ca  ca  ha  ca  ca  
ha  ha  ca  ca  ca  ha  ca  ca  ca  ha  ca  ha  ha  ha  ca  ca  ha  ca  ca  ha  
ca  ha  ha  ha  ca  ca  ca  ca  ca  ha  ca  ca  ca  ha  ca  ca  ha  ha  ca  ca  
ca  ha  ca  ca  ca  ha  ca  ha  ha  ha  ca  ca  ha  ca  ca  ha  ca  ha  ha  ha  
ca  ca  ca  ca  ca  ha  ca  ca  ca  ha  ca  ca  ha  ha  ca  ca  ca  ha  ca  ca  
ca  ha  ca  ha  ha  ha  ca  ca  ha  ca  ca  ha  ca  ha  ha  ha  ca  ca  ca  ca  
ca  ha  ca  ca  ca  ha  ca  ca  ha  ha  ca  ca  ca  ha  ca  ca  ca  ha  ca  ha  
ha  ha  ca  ca  ha  ca  ca  ha  ca  ha  ha  ha  ca  ca  ca  ca  ca  ha  ca  ca  
ca  ha  ca  ca  ha  ha  ca  ca  ca  ha  ca  ca  ca  ha  ca  ha  ha  ha  ca  ca  
ha  ca  ca  ha  ca  ha  ha  ha  ca  ca  ca  ca  ca  ha  ca  ca  ca  ha  ca  ca  
ha  ha  ca  ca  ca  ha  ca  ca  ca  ha  ca  ha  ha  ha  ca  ca  ha  ca  ca  ha  
ca  ha  ha  ha  ca  ca  ca  ca  ca  ha  ca  ca  ca  ha  ca  ca  ha  ha  ca  ca  
ca  ha  ca  ca  ca  ha  ca  ha  ha  ha  ca  ca  ha  ca  ca  ha  ca  ha  ha  ha  
ca  ca  ca  ca  ca  ha  ca  ca  ca  ha  ca  ca  ha  ha  ca  ca  ca  ha  ca  ca  
ca  ha  ca  ha  ha  ha  ca  ca  ha  ca  ca  ha  ca  ha  ha  ha  ca  ca  ca  ca  
ca  ha  ca  ca  ca  ha  ca  ca  ha  ha  ca  ca  ca  ha  ca  ca  ca  ha  ca  ha  
ha  ha  ca  ca  ha  ca  ca  ha  ca  ha  ha  ha  ca  ca  ca  ca  ca  ha  ca  ca  
ca  ha  ca  ca  ha  ha  ca  ca  ca  ha  ca  ca  ca  ha  ca  ha  ha  ha  ca  ca  
ha  ca  ca  ha  ca  ha  ha  ha  ca  ca  ca  ca  ca  ha  ca  ca  ca  ha  ca  ca  
ha  ha  ca  ca  ca  ha  ca  ca  ca  ha  ca  ha  ha  ha  ca  ca  ha  ca  ca  ha  
ca  ha  ha  ha  ca  ca  ca  ca  ca  ha  ca  ca  ca  ha  ca  ca  ha  ha  ca  ca  
ca  ha  ca  ca  ca  ha  ca  ha  ha  ha  ca  ca  ha  ca  ca  ha  ca  ha  ha  ha  
ca  ca  ca  ca  ca  ha  ca  ca  ca  ha  ca  ca  ha  ha  ca  ca  ca  ha  ca  ca  
ca  ha  ca  ha  ha  ha  ca  ca  ha  ca  ca  ha  ca  ha  ha  ha  ca  ca  ca  ca  
ca  ha  ca  ca  ca  ha  ca  ca  ha  ha  ca  ca  ca  ha  ca  ca  ca  ha  ca  ha  
ha  ha  ca  ca  ha  ca  ca  ha  ca  ha  ha  ha  ca  ca  ca  ca  ca  ha  ca  ca  
ca  ha  ca  ca  ha  ha  ca  ca  ca  ha  ca  ca  ca  ha  ca  ha  ha  ha  ca  ca  
ha  ca  ca  ha  ca  ha  ha  ha  ca  ca  ca  ca  ca  ha  ca  ca  ca  ha  ca  ca  
ha  ha  ca  ca  ca  ha  ca  ca  ca  ha  ca  ha  ha  ha  ca  ca  ha  ca  ca  ha  
ca  ha  ha  ha  ca  ca  ca  ca  ca  ha  ca  ca  ca  ha  ca  ca  ha  ha  ca  ca  
ca  ha  ca  ca  ca  ha  ca  ha  ha  ha  ca  ca  ha  ca  ca  ha  ca  ha  ha  ha  
ca  ca  ca  ca  ca  ha  ca  ca  ca  ha  ca  ca  ha  ha  ca  ca  ca  ha  ca  ca  
ca  ha  ca  ha  ha  ha  ca  ca  ha  ca  ca  ha  ca  ha  ha  ha  ca  ca  ca  ca  
ca  ha  ca  ca  ca  ha  ca  ca  ha  ha  ca  ca  ca  ha  ca  ca  ca  ha  ca  ha  
ha  ha  ca  ca  ha  ca  ca  ha  ca  ha  ha  ha  ca  ca  ca  ca  ca  ha  ca  ca  
ca  ha  ca  ca  ha  ha  ca  ca  ca  ha  ca  ca  ca  ha  ca  ha  ha  ha  ca  ca  
ha  ca  ca  ha  ca  ha  ha  ha  ca  ca  ca  ca  ca  ha  ca  ca  ca  ha  ca  ca  
ha  ha  ca  ca  ca  ha  ca  ca  ca  ha  ca  ha  ha  ha  ca  ca  ha  ca  ca  ha  
ca  ha  ha  ha  ca  ca  ca  ca  ca  ha  ca  ca  ca  ha  ca  ca  ha  ha  ca  ca  
ca  ha  ca  ca  ca  ha  ca  ha  ha  ha  ca  ca  ha  ca  ca  ha  ca  ha  ha  ha  
ca  ca  ca  ca  ca  ha  ca  ca  ca  ha  ca  ca  ha  ha  ca  ca  ca  ha  ca  ca  
ca  ha  ca  ha  ha  ha  ca  ca  ha  ca  ca  ha  ca  ha  ha  ha  ca  ca  ca  ca  
ca  ha  ca  ca  ca  ha  ca  ca  ha  ha  ca  ca  ca  ha  ca  ca  ca  ha  ca  ha  
ha  ha  ca  ca  ha  ca  ca  ha  ca  ha  ha  ha  ca  ca  ca  ca  ca  ha  ca  ca  
ca  ha  ca  ca  ha  ha  ca  ca  ca  ha  ca  ca  ca  ha  ca  ha  ha  ha  ca  ca  
ha  ca  ca  ha  ca  ha  ha  ha  ca  ca  ca  ca  ca  ha  ca  ca  ca  ha  ca  ca  
ha  ha  ca  ca  ca  ha  ca  ca  ca  ha  ca  ha  ha  ha  ca  ca  ha  ca  ca  ha  
ca  ha  ha  ha  ca  ca  ca  ca  ca  ha  ca  ca  ca  ha  ca  ca  ha  ha  ca  ca  
ca  ha  ca  ca  ca  ha  ca  ha  ha  ha  ca  ca  ha  ca  ca  ha  ca  ha  ha  ha  
ca  ca  ca  ca  ca  ha  ca  ca  ca  ha  ca  ca  ha  ha  ca  ca  ca  ha  ca  ca  
ca  ha  ca  ha  ha  ha  ca  ca  ha  ca  ca  ha  ca  ha  ha  ha  ca  ca  ca  ca  
ca  ha  ca  ca  ca  ha  ca  ca  ha  ha  ca  ca  ca  ha  ca  ca  ca  ha  ca  ha  
ha  ha  ca  ca  ha  ca  ca  ha  ca  ha  ha  ha  ca  ca  ca  ca  ca  ha  ca  ca  
ca  ha  ca  ca  ha  ha  ca  ca  ca  ha  ca  ca  ca  ha  ca  ha  ha  ha  ca  ca  
ha  ca  ca  ha  ca  ha  ha  ha  ca  ca  ca  ca  ca  ha  ca  ca  ca  ha  ca  ca  
ha  ha  ca  ca  ca  ha  ca  ca  ca  ha  ca  ha  ha  ha  ca  ca  ha  ca  ca  ha  
ca  ha  ha  ha  ca  ca  ca  ca  ca  ha  ca  ca  ca  ha  ca  ca  ha  ha  ca  ca  
ca  ha  ca  ca  ca  ha  ca  ha  ha  ha  ca  ca  ha  ca  ca  ha  ca  ha  ha  ha  
ca  ca  ca  ca  ca  ha  ca  ca  ca  ha  ca  ca  ha  ha  ca  ca  ca  ha  ca  ca  
ca  ha  ca  ha  ha  ha  ca  ca  ha  ca  ca  ha  ca  ha  ha  ha  ca  ca  ca  ca  
ca  ha  ca  ca  ca  ha  ca  ca  ha  ha  ca  ca  ca  ha  ca  ca  ca  ha  ca  ha  
ha  ha  ca  ca  ha  ca  ca  ha  ca  ha  ha  ha  ca  ca  ca  ca  ca  ha  ca  ca  
ca  ha  ca  ca  ha  ha  ca  ca  ca  ha  ca  ca  ca  ha  ca  ha  ha  ha  ca  ca  
ha  ca  ca  ha  ca  ha  ha  ha  ca  ca  ca  ca  ca  ha  ca  ca  ca  ha  ca  ca  
ha  ha  ca  ca  ca  ha  ca  ca  ca  ha  ca  ha  ha  ha  ca  ca  ha  ca  ca  ha  
ca  ha  ha  ha  ca  ca  ca  ca  ca  ha  ca  ca  ca  ha  ca  ca  ha  ha  ca  ca  
ca  ha  ca  ca  ca  ha  ca  ha  ha  ha  ca  ca  ha  ca  ca  ha  ca  ha  ha  ha  
ca  ca  ca  ca  ca  ha  ca  ca  ca  ha  ca  ca  ha  ha  ca  ca  ca  ha  ca  ca  
ca  ha  ca  ha  ha  ha  ca  ca  ha  ca  ca  ha  ca  ha  ha  ha  ca  ca  ca  ca  
ca  ha  ca  ca  ca  ha  ca  ca  ha  ha  ca  ca  ca  ha  ca  ca  ca  ha  ca  ha  
ha  ha  ca  ca  ha  ca  ca  ha  ca  ha  ha  ha  ca  ca  ca  ca  ca  ha  ca  ca  
ca  ha  ca  ca  ha  ha  ca  ca  ca  ha  ca  ca  ca  ha  ca  ha  ha  ha  ca  ca  
ha  ca  ca  ha  ca  ha  ha  ha  ca  ca  ca  ca  ca  ha  ca  ca  ca  ha  ca  ca  
ha  ha  ca  ca  ca  ha  ca  ca  ca  ha  ca  ha  ha  ha  ca  ca  ha  ca  ca  ha  
ca  ha  ha  ha  ca  ca  ca  ca  ca  ha  ca  ca  ca  ha  ca  ca  ha  ha  ca  ca  
ca  ha  ca  ca  ca  ha  ca  ha  ha  ha  ca  ca  ha  ca  ca  ha  ca  ha  ha  ha  
%FLAG TREE_CHAIN_CLASSIFICATION                                                 
%FORMAT(20a4)                                                                   
BLA BLA BLA BLA BLA BLA BLA BLA BLA BLA BLA BLA BLA BLA BLA BLA BLA BLA BLA BLA 
BLA BLA BLA BLA BLA BLA BLA BLA BLA BLA BLA BLA BLA BLA BLA BLA BLA BLA BLA BLA 
BLA BLA BLA BLA BLA BLA BLA BLA BLA BLA BLA BLA BLA BLA BLA BLA BLA BLA BLA BLA 
BLA BLA BLA BLA BLA BLA BLA BLA BLA BLA BLA BLA BLA BLA BLA BLA BLA BLA BLA BLA 
BLA BLA BLA BLA BLA BLA BLA BLA BLA BLA BLA BLA BLA BLA BLA BLA BLA BLA BLA BLA 
BLA BLA BLA BLA BLA BLA BLA BLA BLA BLA BLA BLA BLA BLA BLA BLA BLA BLA BLA BLA 
BLA BLA BLA BLA BLA BLA BLA BLA BLA BLA BLA BLA BLA BLA BLA BLA BLA BLA BLA BLA 
BLA BLA BLA BLA BLA BLA BLA BLA BLA BLA BLA BLA BLA BLA BLA BLA BLA BLA BLA BLA 
BLA BLA BLA BLA BLA BLA BLA BLA BLA BLA BLA BLA BLA BLA BLA BLA BLA BLA BLA BLA 
BLA BLA BLA BLA BLA BLA BLA BLA BLA BLA BLA BLA BLA BLA BLA BLA BLA BLA BLA BLA 
BLA BLA BLA BLA BLA BLA BLA BLA BLA BLA BLA BLA BLA BLA BLA BLA BLA BLA BLA BLA 
BLA BLA BLA BLA BLA BLA BLA BLA BLA BLA BLA BLA BLA BLA BLA BLA BLA BLA BLA BLA 
BLA BLA BLA BLA BLA BLA BLA BLA BLA BLA BLA BLA BLA BLA BLA BLA BLA BLA BLA BLA 
BLA BLA BLA BLA BLA BLA BLA BLA BLA BLA BLA BLA BLA BLA BLA BLA BLA BLA BLA BLA 
BLA BLA BLA BLA BLA BLA BLA BLA BLA BLA BLA BLA BLA BLA BLA BLA BLA BLA BLA BLA 
BLA BLA BLA BLA BLA BLA BLA BLA BLA BLA BLA BLA BLA BLA BLA BLA BLA BLA BLA BLA 
BLA BLA BLA BLA BLA BLA BLA BLA BLA BLA BLA BLA BLA BLA BLA BLA BLA BLA BLA BLA 
BLA BLA BLA BLA BLA BLA BLA BLA BLA BLA BLA BLA BLA BLA BLA BLA BLA BLA BLA BLA 
BLA BLA BLA BLA BLA BLA BLA BLA BLA BLA BLA BLA BLA BLA BLA BLA BLA BLA BLA BLA 
BLA BLA BLA BLA BLA BLA BLA BLA BLA BLA BLA BLA BLA BLA BLA BLA BLA BLA BLA BLA 
BLA BLA BLA BLA BLA BLA BLA BLA BLA BLA BLA BLA BLA BLA BLA BLA BLA BLA BLA BLA 
BLA BLA BLA BLA BLA BLA BLA BLA BLA BLA BLA BLA BLA BLA BLA BLA BLA BLA BLA BLA 
BLA BLA BLA BLA BLA BLA BLA BLA BLA BLA BLA BLA BLA BLA BLA BLA BLA BLA BLA BLA 
BLA BLA BLA BLA BLA BLA BLA BLA BLA BLA BLA BLA BLA BLA BLA BLA BLA BLA BLA BLA 
BLA BLA BLA BLA BLA BLA BLA BLA BLA BLA BLA BLA BLA BLA BLA BLA BLA BLA BLA BLA 
BLA BLA BLA BLA BLA BLA BLA BLA BLA BLA BLA BLA BLA BLA BLA BLA BLA BLA BLA BLA 
BLA BLA BLA BLA BLA BLA BLA BLA BLA BLA BLA BLA BLA BLA BLA BLA BLA BLA BLA BLA 
BLA BLA BLA BLA BLA BLA BLA BLA BLA BLA BLA BLA BLA BLA BLA BLA BLA BLA BLA BLA 
BLA BLA BLA BLA BLA BLA BLA BLA BLA BLA BLA BLA BLA BLA BLA BLA BLA BLA BLA BLA 
BLA BLA BLA BLA BLA BLA BLA BLA BLA BLA BLA BLA BLA BLA BLA BLA BLA BLA BLA BLA 
BLA BLA BLA BLA BLA BLA BLA BLA BLA BLA BLA BLA BLA BLA BLA BLA BLA BLA BLA BLA 
BLA BLA BLA BLA BLA BLA BLA BLA BLA BLA BLA BLA BLA BLA BLA BLA BLA BLA BLA BLA 
BLA BLA BLA BLA BLA BLA BLA BLA BLA BLA BLA BLA BLA BLA BLA BLA BLA BLA BLA BLA 
BLA BLA BLA BLA BLA BLA BLA BLA BLA BLA BLA BLA BLA BLA BLA BLA BLA BLA BLA BLA 
BLA BLA BLA BLA BLA BLA BLA BLA BLA BLA BLA BLA BLA BLA BLA BLA BLA BLA BLA BLA 
BLA BLA BLA BLA BLA BLA BLA BLA BLA BLA BLA BLA BLA BLA BLA BLA BLA BLA BLA BLA 
BLA BLA BLA BLA BLA BLA BLA BLA BLA BLA BLA BLA BLA BLA BLA BLA BLA BLA BLA BLA 
BLA BLA BLA BLA BLA BLA BLA BLA BLA BLA BLA BLA BLA BLA BLA BLA BLA BLA BLA BLA 
BLA BLA BLA BLA BLA BLA BLA BLA BLA BLA BLA BLA BLA BLA BLA BLA BLA BLA BLA BLA 
BLA BLA BLA BLA BLA BLA BLA BLA BLA BLA BLA BLA BLA BLA BLA BLA BLA BLA BLA BLA 
BLA BLA BLA BLA BLA BLA BLA BLA BLA BLA BLA BLA BLA BLA BLA BLA BLA BLA BLA BLA 
BLA BLA BLA BLA BLA BLA BLA BLA BLA BLA BLA BLA BLA BLA BLA BLA BLA BLA BLA BLA 
BLA BLA BLA BLA BLA BLA BLA BLA BLA BLA BLA BLA BLA BLA BLA BLA BLA BLA BLA BLA 
BLA BLA BLA BLA BLA BLA BLA BLA BLA BLA BLA BLA BLA BLA BLA BLA BLA BLA BLA BLA 
BLA BLA BLA BLA BLA BLA BLA BLA BLA BLA BLA BLA BLA BLA BLA BLA BLA BLA BLA BLA 
BLA BLA BLA BLA BLA BLA BLA BLA BLA BLA BLA BLA BLA BLA BLA BLA BLA BLA BLA BLA 
BLA BLA BLA BLA BLA BLA BLA BLA BLA BLA BLA BLA BLA BLA BLA BLA BLA BLA BLA BLA 
BLA BLA BLA BLA BLA BLA BLA BLA BLA BLA BLA BLA BLA BLA BLA BLA BLA BLA BLA BLA 
BLA BLA BLA BLA BLA BLA BLA BLA BLA BLA BLA BLA BLA BLA BLA BLA BLA BLA BLA BLA 
BLA BLA BLA BLA BLA BLA BLA BLA BLA BLA BLA BLA BLA BLA BLA BLA BLA BLA BLA BLA 
BLA BLA BLA BLA BLA BLA BLA BLA BLA BLA BLA BLA BLA BLA BLA BLA BLA BLA BLA BLA 
BLA BLA BLA BLA BLA BLA BLA BLA BLA BLA BLA BLA BLA BLA BLA BLA BLA BLA BLA BLA 
BLA BLA BLA BLA BLA BLA BLA BLA BLA BLA BLA BLA BLA BLA BLA BLA BLA BLA BLA BLA 
BLA BLA BLA BLA BLA BLA BLA BLA BLA BLA BLA BLA BLA BLA BLA BLA BLA BLA BLA BLA 
BLA BLA BLA BLA BLA BLA BLA BLA BLA BLA BLA BLA BLA BLA BLA BLA BLA BLA BLA BLA 
BLA BLA BLA BLA BLA BLA BLA BLA BLA BLA BLA BLA BLA BLA BLA BLA BLA BLA BLA BLA 
BLA BLA BLA BLA BLA BLA BLA BLA BLA BLA BLA BLA BLA BLA BLA BLA BLA BLA BLA BLA 
BLA BLA BLA BLA BLA BLA BLA BLA BLA BLA BLA BLA BLA BLA BLA BLA BLA BLA BLA BLA 
BLA BLA BLA BLA BLA BLA BLA BLA BLA BLA BLA BLA BLA BLA BLA BLA BLA BLA BLA BLA 
BLA BLA BLA BLA BLA BLA BLA BLA BLA BLA BLA BLA BLA BLA BLA BLA BLA BLA BLA BLA 
BLA BLA BLA BLA BLA BLA BLA BLA BLA BLA BLA BLA BLA BLA BLA BLA BLA BLA BLA BLA 
BLA BLA BLA BLA BLA BLA BLA BLA BLA BLA BLA BLA BLA BLA BLA BLA BLA BLA BLA BLA 
BLA BLA BLA BLA BLA BLA BLA BLA BLA BLA BLA BLA BLA BLA BLA BLA BLA BLA BLA BLA 
BLA BLA BLA BLA BLA BLA BLA BLA BLA BLA BLA BLA BLA BLA BLA BLA BLA BLA BLA BLA 
BLA BLA BLA BLA BLA BLA BLA BLA BLA BLA BLA BLA BLA BLA BLA BLA BLA BLA BLA BLA 
BLA BLA BLA BLA BLA BLA BLA BLA BLA BLA BLA BLA BLA BLA BLA BLA BLA BLA BLA BLA 
BLA BLA BLA BLA BLA BLA BLA BLA BLA BLA BLA BLA BLA BLA BLA BLA BLA BLA BLA BLA 
BLA BLA BLA BLA BLA BLA BLA BLA BLA BLA BLA BLA BLA BLA BLA BLA BLA BLA BLA BLA 
BLA BLA BLA BLA BLA BLA BLA BLA BLA BLA BLA BLA BLA BLA BLA BLA BLA BLA BLA BLA 
BLA BLA BLA BLA BLA BLA BLA BLA BLA BLA BLA BLA BLA BLA BLA BLA BLA BLA BLA BLA 
BLA BLA BLA BLA BLA BLA BLA BLA BLA BLA BLA BLA BLA BLA BLA BLA BLA BLA BLA BLA 
BLA BLA BLA BLA BLA BLA BLA BLA BLA BLA BLA BLA BLA BLA BLA BLA BLA BLA BLA BLA 
BLA BLA BLA BLA BLA BLA BLA BLA BLA BLA BLA BLA BLA BLA BLA BLA BLA BLA BLA BLA 
BLA BLA BLA BLA BLA BLA BLA BLA BLA BLA BLA BLA BLA BLA BLA BLA BLA BLA BLA BLA 
BLA BLA BLA BLA BLA BLA BLA BLA BLA BLA BLA BLA BLA BLA BLA BLA BLA BLA BLA BLA 
BLA BLA BLA BLA BLA BLA BLA BLA BLA BLA BLA BLA BLA BLA BLA BLA BLA BLA BLA BLA 
BLA BLA BLA BLA BLA BLA BLA BLA BLA BLA BLA BLA BLA BLA BLA BLA BLA BLA BLA BLA 
BLA BLA BLA BLA BLA BLA BLA BLA BLA BLA BLA BLA BLA BLA BLA BLA BLA BLA BLA BLA 
BLA BLA BLA BLA BLA BLA BLA BLA BLA BLA BLA BLA BLA BLA BLA BLA BLA BLA BLA BLA 
BLA BLA BLA BLA BLA BLA BLA BLA BLA BLA BLA BLA BLA BLA BLA BLA BLA BLA BLA BLA 
BLA BLA BLA BLA BLA BLA BLA BLA BLA BLA BLA BLA BLA BLA BLA BLA BLA BLA BLA BLA 
BLA BLA BLA BLA BLA BLA BLA BLA BLA BLA BLA BLA BLA BLA BLA BLA BLA BLA BLA BLA 
BLA BLA BLA BLA BLA BLA BLA BLA BLA BLA BLA BLA BLA BLA BLA BLA BLA BLA BLA BLA 
BLA BLA BLA BLA BLA BLA BLA BLA BLA BLA BLA BLA BLA BLA BLA BLA BLA BLA BLA BLA 
BLA BLA BLA BLA BLA BLA BLA BLA BLA BLA BLA BLA BLA BLA BLA BLA BLA BLA BLA BLA 
BLA BLA BLA BLA BLA BLA BLA BLA BLA BLA BLA BLA BLA BLA BLA BLA BLA BLA BLA BLA 
BLA BLA BLA BLA BLA BLA BLA BLA BLA BLA BLA BLA BLA BLA BLA BLA BLA BLA BLA BLA 
BLA BLA BLA BLA BLA BLA BLA BLA BLA BLA BLA BLA BLA BLA BLA BLA BLA BLA BLA BLA 
BLA BLA BLA BLA BLA BLA BLA BLA BLA BLA BLA BLA BLA BLA BLA BLA BLA BLA BLA BLA 
BLA BLA BLA BLA BLA BLA BLA BLA BLA BLA BLA BLA BLA BLA BLA BLA BLA BLA BLA BLA 
BLA BLA BLA BLA BLA BLA BLA BLA BLA BLA BLA BLA BLA BLA BLA BLA BLA BLA BLA BLA 
BLA BLA BLA BLA BLA BLA BLA BLA BLA BLA BLA BLA BLA BLA BLA BLA BLA BLA BLA BLA 
BLA BLA BLA BLA BLA BLA BLA BLA BLA BLA BLA BLA BLA BLA BLA BLA BLA BLA BLA BLA 
BLA BLA BLA BLA BLA BLA BLA BLA BLA BLA BLA BLA BLA BLA BLA BLA BLA BLA BLA BLA 
BLA BLA BLA BLA BLA BLA BLA BLA BLA BLA BLA BLA BLA BLA BLA BLA BLA BLA BLA BLA 
BLA BLA BLA BLA BLA BLA BLA BLA BLA BLA BLA BLA BLA BLA BLA BLA BLA BLA BLA BLA 
BLA BLA BLA BLA BLA BLA BLA BLA BLA BLA BLA BLA BLA BLA BLA BLA BLA BLA BLA BLA 
BLA BLA BLA BLA BLA BLA BLA BLA BLA BLA BLA BLA BLA BLA BLA BLA BLA BLA BLA BLA 
BLA BLA BLA BLA BLA BLA BLA BLA BLA BLA BLA BLA BLA BLA BLA BLA BLA BLA BLA BLA 
BLA BLA BLA BLA BLA BLA BLA BLA BLA BLA BLA BLA BLA BLA BLA BLA BLA BLA BLA BLA 
BLA BLA BLA BLA BLA BLA BLA BLA BLA BLA BLA BLA BLA BLA BLA BLA BLA BLA BLA BLA 
BLA BLA BLA BLA BLA BLA BLA BLA BLA BLA BLA BLA BLA BLA BLA BLA BLA BLA BLA BLA 
BLA BLA BLA BLA BLA BLA BLA BLA BLA BLA BLA BLA BLA BLA BLA BLA BLA BLA BLA BLA 
BLA BLA BLA BLA BLA BLA BLA BLA BLA BLA BLA BLA BLA BLA BLA BLA BLA BLA BLA BLA 
BLA BLA BLA BLA BLA BLA BLA BLA BLA BLA BLA BLA BLA BLA BLA BLA BLA BLA BLA BLA 
BLA BLA BLA BLA BLA BLA BLA BLA BLA BLA BLA BLA BLA BLA BLA BLA BLA BLA BLA BLA 
BLA BLA BLA BLA BLA BLA BLA BLA BLA BLA BLA BLA BLA BLA BLA BLA BLA BLA BLA BLA 
BLA BLA BLA BLA BLA BLA BLA BLA BLA BLA BLA BLA BLA BLA BLA BLA BLA BLA BLA BLA 
BLA BLA BLA BLA BLA BLA BLA BLA BLA BLA BLA BLA BLA BLA BLA BLA BLA BLA BLA BLA 
BLA BLA BLA BLA BLA BLA BLA BLA BLA BLA BLA BLA BLA BLA BLA BLA BLA BLA BLA BLA 
BLA BLA BLA BLA BLA BLA BLA BLA BLA BLA BLA BLA BLA BLA BLA BLA BLA BLA BLA BLA 
BLA BLA BLA BLA BLA BLA BLA BLA BLA BLA BLA BLA BLA BLA BLA BLA BLA BLA BLA BLA 
BLA BLA BLA BLA BLA BLA BLA BLA BLA BLA BLA BLA BLA BLA BLA BLA BLA BLA BLA BLA 
BLA BLA BLA BLA BLA BLA BLA BLA BLA BLA BLA BLA BLA BLA BLA BLA BLA BLA BLA BLA 
BLA BLA BLA BLA BLA BLA BLA BLA BLA BLA BLA BLA BLA BLA BLA BLA BLA BLA BLA BLA 
BLA BLA BLA BLA BLA BLA BLA BLA BLA BLA BLA BLA BLA BLA BLA BLA BLA BLA BLA BLA 
BLA BLA BLA BLA BLA BLA BLA BLA BLA BLA BLA BLA BLA BLA BLA BLA BLA BLA BLA BLA 
BLA BLA BLA BLA BLA BLA BLA BLA BLA BLA BLA BLA BLA BLA BLA BLA BLA BLA BLA BLA 
BLA BLA BLA BLA BLA BLA BLA BLA BLA BLA BLA BLA BLA BLA BLA BLA BLA BLA BLA BLA 
BLA BLA BLA BLA BLA BLA BLA BLA BLA BLA BLA BLA BLA BLA BLA BLA BLA BLA BLA BLA 
BLA BLA BLA BLA BLA BLA BLA BLA BLA BLA BLA BLA BLA BLA BLA BLA BLA BLA BLA BLA 
BLA BLA BLA BLA BLA BLA BLA BLA BLA BLA BLA BLA BLA BLA BLA BLA BLA BLA BLA BLA 
BLA BLA BLA BLA BLA BLA BLA BLA BLA BLA BLA BLA BLA BLA BLA BLA BLA BLA BLA BLA 
BLA BLA BLA BLA BLA BLA BLA BLA BLA BLA BLA BLA BLA BLA BLA BLA BLA BLA BLA BLA 
BLA BLA BLA BLA BLA BLA BLA BLA BLA BLA BLA BLA BLA BLA BLA BLA BLA BLA BLA BLA 
BLA BLA BLA BLA BLA BLA BLA BLA BLA BLA BLA BLA BLA BLA BLA BLA BLA BLA BLA BLA 
BLA BLA BLA BLA BLA BLA BLA BLA BLA BLA BLA BLA BLA BLA BLA BLA BLA BLA BLA BLA 
BLA BLA BLA BLA BLA BLA BLA BLA BLA BLA BLA BLA BLA BLA BLA BLA BLA BLA BLA BLA 
BLA BLA BLA BLA BLA BLA BLA BLA BLA BLA BLA BLA BLA BLA BLA BLA BLA BLA BLA BLA 
BLA BLA BLA BLA BLA BLA BLA BLA BLA BLA BLA BLA BLA BLA BLA BLA BLA BLA BLA BLA 
BLA BLA BLA BLA BLA BLA BLA BLA BLA BLA BLA BLA BLA BLA BLA BLA BLA BLA BLA BLA 
BLA BLA BLA BLA BLA BLA BLA BLA BLA BLA BLA BLA BLA BLA BLA BLA BLA BLA BLA BLA 
BLA BLA BLA BLA BLA BLA BLA BLA BLA BLA BLA BLA BLA BLA BLA BLA BLA BLA BLA BLA 
BLA BLA BLA BLA BLA BLA BLA BLA BLA BLA BLA BLA BLA BLA BLA BLA BLA BLA BLA BLA 
BLA BLA BLA BLA BLA BLA BLA BLA BLA BLA BLA BLA BLA BLA BLA BLA BLA BLA BLA BLA 
BLA BLA BLA BLA BLA BLA BLA BLA BLA BLA BLA BLA BLA BLA BLA BLA BLA BLA BLA BLA 
BLA BLA BLA BLA BLA BLA BLA BLA BLA BLA BLA BLA BLA BLA BLA BLA BLA BLA BLA BLA 
BLA BLA BLA BLA BLA BLA BLA BLA BLA BLA BLA BLA BLA BLA BLA BLA BLA BLA BLA BLA 
BLA BLA BLA BLA BLA BLA BLA BLA BLA BLA BLA BLA BLA BLA BLA BLA BLA BLA BLA BLA 
BLA BLA BLA BLA BLA BLA BLA BLA BLA BLA BLA BLA BLA BLA BLA BLA BLA BLA BLA BLA 
BLA BLA BLA BLA BLA BLA BLA BLA BLA BLA BLA BLA BLA BLA BLA BLA BLA BLA BLA BLA 
BLA BLA BLA BLA BLA BLA BLA BLA BLA BLA BLA BLA BLA BLA BLA BLA BLA BLA BLA BLA 
BLA BLA BLA BLA BLA BLA BLA BLA BLA BLA BLA BLA BLA BLA BLA BLA BLA BLA BLA BLA 
BLA BLA BLA BLA BLA BLA BLA BLA BLA BLA BLA BLA BLA BLA BLA BLA BLA BLA BLA BLA 
BLA BLA BLA BLA BLA BLA BLA BLA BLA BLA BLA BLA BLA BLA BLA BLA BLA BLA BLA BLA 
BLA BLA BLA BLA BLA BLA BLA BLA BLA BLA BLA BLA BLA BLA BLA BLA BLA BLA BLA BLA 
BLA BLA BLA BLA BLA BLA BLA BLA BLA BLA BLA BLA BLA BLA BLA BLA BLA BLA BLA BLA 
BLA BLA BLA BLA BLA BLA BLA BLA BLA BLA BLA BLA BLA BLA BLA BLA BLA BLA BLA BLA 
BLA BLA BLA BLA BLA BLA BLA BLA BLA BLA BLA BLA BLA BLA BLA BLA BLA BLA BLA BLA 
BLA BLA BLA BLA BLA BLA BLA BLA BLA BLA BLA BLA BLA BLA BLA BLA BLA BLA BLA BLA 
BLA BLA BLA BLA BLA BLA BLA BLA BLA BLA BLA BLA BLA BLA BLA BLA BLA BLA BLA BLA 
BLA BLA BLA BLA BLA BLA BLA BLA BLA BLA BLA BLA BLA BLA BLA BLA BLA BLA BLA BLA 
BLA BLA BLA BLA BLA BLA BLA BLA BLA BLA BLA BLA BLA BLA BLA BLA BLA BLA BLA BLA 
BLA BLA BLA BLA BLA BLA BLA BLA BLA BLA BLA BLA BLA BLA BLA BLA BLA BLA BLA BLA 
BLA BLA BLA BLA BLA BLA BLA BLA BLA BLA BLA BLA BLA BLA BLA BLA BLA BLA BLA BLA 
BLA BLA BLA BLA BLA BLA BLA BLA BLA BLA BLA BLA BLA BLA BLA BLA BLA BLA BLA BLA 
BLA BLA BLA BLA BLA BLA BLA BLA BLA BLA BLA BLA BLA BLA BLA BLA BLA BLA BLA BLA 
BLA BLA BLA BLA BLA BLA BLA BLA BLA BLA BLA BLA BLA BLA BLA BLA BLA BLA BLA BLA 
BLA BLA BLA BLA BLA BLA BLA BLA BLA BLA BLA BLA BLA BLA BLA BLA BLA BLA BLA BLA 
BLA BLA BLA BLA BLA BLA BLA BLA BLA BLA BLA BLA BLA BLA BLA BLA BLA BLA BLA BLA 
BLA BLA BLA BLA BLA BLA BLA BLA BLA BLA BLA BLA BLA BLA BLA BLA BLA BLA BLA BLA 
BLA BLA BLA BLA BLA BLA BLA BLA BLA BLA BLA BLA BLA BLA BLA BLA BLA BLA BLA BLA 
BLA BLA BLA BLA BLA BLA BLA BLA BLA BLA BLA BLA BLA BLA BLA BLA BLA BLA BLA BLA 
BLA BLA BLA BLA BLA BLA BLA BLA BLA BLA BLA BLA BLA BLA BLA BLA BLA BLA BLA BLA 
BLA BLA BLA BLA BLA BLA BLA BLA BLA BLA BLA BLA BLA BLA BLA BLA BLA BLA BLA BLA 
BLA BLA BLA BLA BLA BLA BLA BLA BLA BLA BLA BLA BLA BLA BLA BLA BLA BLA BLA BLA 
BLA BLA BLA BLA BLA BLA BLA BLA BLA BLA BLA BLA BLA BLA BLA BLA BLA BLA BLA BLA 
BLA BLA BLA BLA BLA BLA BLA BLA BLA BLA BLA BLA BLA BLA BLA BLA BLA BLA BLA BLA 
BLA BLA BLA BLA BLA BLA BLA BLA BLA BLA BLA BLA BLA BLA BLA BLA BLA BLA BLA BLA 
BLA BLA BLA BLA BLA BLA BLA BLA BLA BLA BLA BLA BLA BLA BLA BLA BLA BLA BLA BLA 
BLA BLA BLA BLA BLA BLA BLA BLA BLA BLA BLA BLA BLA BLA BLA BLA BLA BLA BLA BLA 
BLA BLA BLA BLA BLA BLA BLA BLA BLA BLA BLA BLA BLA BLA BLA BLA BLA BLA BLA BLA 
BLA BLA BLA BLA BLA BLA BLA BLA BLA BLA BLA BLA BLA BLA BLA BLA BLA BLA BLA BLA 
BLA BLA BLA BLA BLA BLA BLA BLA BLA BLA BLA BLA BLA BLA BLA BLA BLA BLA BLA BLA 
BLA BLA BLA BLA BLA BLA BLA BLA BLA BLA BLA BLA BLA BLA BLA BLA BLA BLA BLA BLA 
BLA BLA BLA BLA BLA BLA BLA BLA BLA BLA BLA BLA BLA BLA BLA BLA BLA BLA BLA BLA 
BLA BLA BLA BLA BLA BLA BLA BLA BLA BLA BLA BLA BLA BLA BLA BLA BLA BLA BLA BLA 
BLA BLA BLA BLA BLA BLA BLA BLA BLA BLA BLA BLA BLA BLA BLA BLA BLA BLA BLA BLA 
BLA BLA BLA BLA BLA BLA BLA BLA BLA BLA BLA BLA BLA BLA BLA BLA BLA BLA BLA BLA 
BLA BLA BLA BLA BLA BLA BLA BLA BLA BLA BLA BLA BLA BLA BLA BLA BLA BLA BLA BLA 
BLA BLA BLA BLA BLA BLA BLA BLA BLA BLA BLA BLA BLA BLA BLA BLA BLA BLA BLA BLA 
BLA BLA BLA BLA BLA BLA BLA BLA BLA BLA BLA BLA BLA BLA BLA BLA BLA BLA BLA BLA 
BLA BLA BLA BLA BLA BLA BLA BLA BLA BLA BLA BLA BLA BLA BLA BLA BLA BLA BLA BLA 
BLA BLA BLA BLA BLA BLA BLA BLA BLA BLA BLA BLA BLA BLA BLA BLA BLA BLA BLA BLA 
BLA BLA BLA BLA BLA BLA BLA BLA BLA BLA BLA BLA BLA BLA BLA BLA BLA BLA BLA BLA 
BLA BLA BLA BLA BLA BLA BLA BLA BLA BLA BLA BLA BLA BLA BLA BLA BLA BLA BLA BLA 
BLA BLA BLA BLA BLA BLA BLA BLA BLA BLA BLA BLA BLA BLA BLA BLA BLA BLA BLA BLA 
BLA BLA BLA BLA BLA BLA BLA BLA BLA BLA BLA BLA BLA BLA BLA BLA BLA BLA BLA BLA 
BLA BLA BLA BLA BLA BLA BLA BLA BLA BLA BLA BLA BLA BLA BLA BLA BLA BLA BLA BLA 
BLA BLA BLA BLA BLA BLA BLA BLA BLA BLA BLA BLA BLA BLA BLA BLA BLA BLA BLA BLA 
BLA BLA BLA BLA BLA BLA BLA BLA BLA BLA BLA BLA BLA BLA BLA BLA BLA BLA BLA BLA 
BLA BLA BLA BLA BLA BLA BLA BLA BLA BLA BLA BLA BLA BLA BLA BLA BLA BLA BLA BLA 
BLA BLA BLA BLA BLA BLA BLA BLA BLA BLA BLA BLA BLA BLA BLA BLA BLA BLA BLA BLA 
BLA BLA BLA BLA BLA BLA BLA BLA BLA BLA BLA BLA BLA BLA BLA BLA BLA BLA BLA BLA 
BLA BLA BLA BLA BLA BLA BLA BLA BLA BLA BLA BLA BLA BLA BLA BLA BLA BLA BLA BLA 
BLA BLA BLA BLA BLA BLA BLA BLA BLA BLA BLA BLA BLA BLA BLA BLA BLA BLA BLA BLA 
BLA BLA BLA BLA BLA BLA BLA BLA BLA BLA BLA BLA BLA BLA BLA BLA BLA BLA BLA BLA 
BLA BLA BLA BLA BLA BLA BLA BLA BLA BLA BLA BLA BLA BLA BLA BLA BLA BLA BLA BLA 
BLA BLA BLA BLA BLA BLA BLA BLA BLA BLA BLA BLA BLA BLA BLA BLA BLA BLA BLA BLA 
BLA BLA BLA BLA BLA BLA BLA BLA BLA BLA BLA BLA BLA BLA BLA BLA BLA BLA BLA BLA 
BLA BLA BLA BLA BLA BLA BLA BLA BLA BLA BLA BLA BLA BLA BLA BLA BLA BLA BLA BLA 
BLA BLA BLA BLA BLA BLA BLA BLA BLA BLA BLA BLA BLA BLA BLA BLA BLA BLA BLA BLA 
BLA BLA BLA BLA BLA BLA BLA BLA BLA BLA BLA BLA BLA BLA BLA BLA BLA BLA BLA BLA 
BLA BLA BLA BLA BLA BLA BLA BLA BLA BLA BLA BLA BLA BLA BLA BLA BLA BLA BLA BLA 
BLA BLA BLA BLA BLA BLA BLA BLA BLA BLA BLA BLA BLA BLA BLA BLA BLA BLA BLA BLA 
BLA BLA BLA BLA BLA BLA BLA BLA BLA BLA BLA BLA BLA BLA BLA BLA BLA BLA BLA BLA 
BLA BLA BLA BLA BLA BLA BLA BLA BLA BLA BLA BLA BLA BLA BLA BLA BLA BLA BLA BLA 
BLA BLA BLA BLA BLA BLA BLA BLA BLA BLA BLA BLA BLA BLA BLA BLA BLA BLA BLA BLA 
BLA BLA BLA BLA BLA BLA BLA BLA BLA BLA BLA BLA BLA BLA BLA BLA BLA BLA BLA BLA 
BLA BLA BLA BLA BLA BLA BLA BLA BLA BLA BLA BLA BLA BLA BLA BLA BLA BLA BLA BLA 
BLA BLA BLA BLA BLA BLA BLA BLA BLA BLA BLA BLA BLA BLA BLA BLA BLA BLA BLA BLA 
BLA BLA BLA BLA BLA BLA BLA BLA BLA BLA BLA BLA BLA BLA BLA BLA BLA BLA BLA BLA 
BLA BLA BLA BLA BLA BLA BLA BLA BLA BLA BLA BLA BLA BLA BLA BLA BLA BLA BLA BLA 
BLA BLA BLA BLA BLA BLA BLA BLA BLA BLA BLA BLA BLA BLA BLA BLA BLA BLA BLA BLA 
BLA BLA BLA BLA BLA BLA BLA BLA BLA BLA BLA BLA BLA BLA BLA BLA BLA BLA BLA BLA 
BLA BLA BLA BLA BLA BLA BLA BLA BLA BLA BLA BLA BLA BLA BLA BLA BLA BLA BLA BLA 
BLA BLA BLA BLA BLA BLA BLA BLA BLA BLA BLA BLA BLA BLA BLA BLA BLA BLA BLA BLA 
BLA BLA BLA BLA BLA BLA BLA BLA BLA BLA BLA BLA BLA BLA BLA BLA BLA BLA BLA BLA 
BLA BLA BLA BLA BLA BLA BLA BLA BLA BLA BLA BLA BLA BLA BLA BLA BLA BLA BLA BLA 
BLA BLA BLA BLA BLA BLA BLA BLA BLA BLA BLA BLA BLA BLA BLA BLA BLA BLA BLA BLA 
BLA BLA BLA BLA BLA BLA BLA BLA BLA BLA BLA BLA BLA BLA BLA BLA BLA BLA BLA BLA 
BLA BLA BLA BLA BLA BLA BLA BLA BLA BLA BLA BLA BLA BLA BLA BLA BLA BLA BLA BLA 
BLA BLA BLA BLA BLA BLA BLA BLA BLA BLA BLA BLA BLA BLA BLA BLA BLA BLA BLA BLA 
BLA BLA BLA BLA BLA BLA BLA BLA BLA BLA BLA BLA BLA BLA BLA BLA BLA BLA BLA BLA 
BLA BLA BLA BLA BLA BLA BLA BLA BLA BLA BLA BLA BLA BLA BLA BLA BLA BLA BLA BLA 
BLA BLA BLA BLA BLA BLA BLA BLA BLA BLA BLA BLA BLA BLA BLA BLA BLA BLA BLA BLA 
BLA BLA BLA BLA BLA BLA BLA BLA BLA BLA BLA BLA BLA BLA BLA BLA BLA BLA BLA BLA 
BLA BLA BLA BLA BLA BLA BLA BLA BLA BLA BLA BLA BLA BLA BLA BLA BLA BLA BLA BLA 
BLA BLA BLA BLA BLA BLA BLA BLA BLA BLA BLA BLA BLA BLA BLA BLA BLA BLA BLA BLA 
BLA BLA BLA BLA BLA BLA BLA BLA BLA BLA BLA BLA BLA BLA BLA BLA BLA BLA BLA BLA 
BLA BLA BLA BLA BLA BLA BLA BLA BLA BLA BLA BLA BLA BLA BLA BLA BLA BLA BLA BLA 
BLA BLA BLA BLA BLA BLA BLA BLA BLA BLA BLA BLA BLA BLA BLA BLA BLA BLA BLA BLA 
BLA BLA BLA BLA BLA BLA BLA BLA BLA BLA BLA BLA BLA BLA BLA BLA BLA BLA BLA BLA 
BLA BLA BLA BLA BLA BLA BLA BLA BLA BLA BLA BLA BLA BLA BLA BLA BLA BLA BLA BLA 
BLA BLA BLA BLA BLA BLA BLA BLA BLA BLA BLA BLA BLA BLA BLA BLA BLA BLA BLA BLA 
BLA BLA BLA BLA BLA BLA BLA BLA BLA BLA BLA BLA BLA BLA BLA BLA BLA BLA BLA BLA 
BLA BLA BLA BLA BLA BLA BLA BLA BLA BLA BLA BLA BLA BLA BLA BLA BLA BLA BLA BLA 
BLA BLA BLA BLA BLA BLA BLA BLA BLA BLA BLA BLA BLA BLA BLA BLA BLA BLA BLA BLA 
BLA BLA BLA BLA BLA BLA BLA BLA BLA BLA BLA BLA BLA BLA BLA BLA BLA BLA BLA BLA 
BLA BLA BLA BLA BLA BLA BLA BLA BLA BLA BLA BLA BLA BLA BLA BLA BLA BLA BLA BLA 
BLA BLA BLA BLA BLA BLA BLA BLA BLA BLA BLA BLA BLA BLA BLA BLA BLA BLA BLA BLA 
BLA BLA BLA BLA BLA BLA BLA BLA BLA BLA BLA BLA BLA BLA BLA BLA BLA BLA BLA BLA 
BLA BLA BLA BLA BLA BLA BLA BLA BLA BLA BLA BLA BLA BLA BLA BLA BLA BLA BLA BLA 
BLA BLA BLA BLA BLA BLA BLA BLA BLA BLA BLA BLA BLA BLA BLA BLA BLA BLA BLA BLA 
BLA BLA BLA BLA BLA BLA BLA BLA BLA BLA BLA BLA BLA BLA BLA BLA BLA BLA BLA BLA 
BLA BLA BLA BLA BLA BLA BLA BLA BLA BLA BLA BLA BLA BLA BLA BLA BLA BLA BLA BLA 
BLA BLA BLA BLA BLA BLA BLA BLA BLA BLA BLA BLA BLA BLA BLA BLA BLA BLA BLA BLA 
BLA BLA BLA BLA BLA BLA BLA BLA BLA BLA BLA BLA BLA BLA BLA BLA BLA BLA BLA BLA 
BLA BLA BLA BLA BLA BLA BLA BLA BLA BLA BLA BLA BLA BLA BLA BLA BLA BLA BLA BLA 
BLA BLA BLA BLA BLA BLA BLA BLA BLA BLA BLA BLA BLA BLA BLA BLA BLA BLA BLA BLA 
BLA BLA BLA BLA BLA BLA BLA BLA BLA BLA BLA BLA BLA BLA BLA BLA BLA BLA BLA BLA 
BLA BLA BLA BLA BLA BLA BLA BLA BLA BLA BLA BLA BLA BLA BLA BLA BLA BLA BLA BLA 
BLA BLA BLA BLA BLA BLA BLA BLA BLA BLA BLA BLA BLA BLA BLA BLA BLA BLA BLA BLA 
BLA BLA BLA BLA BLA BLA BLA BLA BLA BLA BLA BLA BLA BLA BLA BLA BLA BLA BLA BLA 
BLA BLA BLA BLA BLA BLA BLA BLA BLA BLA BLA BLA BLA BLA BLA BLA BLA BLA BLA BLA 
BLA BLA BLA BLA BLA BLA BLA BLA BLA BLA BLA BLA BLA BLA BLA BLA BLA BLA BLA BLA 
BLA BLA BLA BLA BLA BLA BLA BLA BLA BLA BLA BLA BLA BLA BLA BLA BLA BLA BLA BLA 
BLA BLA BLA BLA BLA BLA BLA BLA BLA BLA BLA BLA BLA BLA BLA BLA BLA BLA BLA BLA 
BLA BLA BLA BLA BLA BLA BLA BLA BLA BLA BLA BLA BLA BLA BLA BLA BLA BLA BLA BLA 
BLA BLA BLA BLA BLA BLA BLA BLA BLA BLA BLA BLA BLA BLA BLA BLA BLA BLA BLA BLA 
BLA BLA BLA BLA BLA BLA BLA BLA BLA BLA BLA BLA BLA BLA BLA BLA BLA BLA BLA BLA 
BLA BLA BLA BLA BLA BLA BLA BLA BLA BLA BLA BLA BLA BLA BLA BLA BLA BLA BLA BLA 
BLA BLA BLA BLA BLA BLA BLA BLA BLA BLA BLA BLA BLA BLA BLA BLA BLA BLA BLA BLA 
BLA BLA BLA BLA BLA BLA BLA BLA BLA BLA BLA BLA BLA BLA BLA BLA BLA BLA BLA BLA 
BLA BLA BLA BLA BLA BLA BLA BLA BLA BLA BLA BLA BLA BLA BLA BLA BLA BLA BLA BLA 
BLA BLA BLA BLA BLA BLA BLA BLA BLA BLA BLA BLA BLA BLA BLA BLA BLA BLA BLA BLA 
BLA BLA BLA BLA BLA BLA BLA BLA BLA BLA BLA BLA BLA BLA BLA BLA BLA BLA BLA BLA 
BLA BLA BLA BLA BLA BLA BLA BLA BLA BLA BLA BLA BLA BLA BLA BLA BLA BLA BLA BLA 
BLA BLA BLA BLA BLA BLA BLA BLA BLA BLA BLA BLA BLA BLA BLA BLA BLA BLA BLA BLA 
BLA BLA BLA BLA BLA BLA BLA BLA BLA BLA BLA BLA BLA BLA BLA BLA BLA BLA BLA BLA 
BLA BLA BLA BLA BLA BLA BLA BLA BLA BLA BLA BLA BLA BLA BLA BLA BLA BLA BLA BLA 
BLA BLA BLA BLA BLA BLA BLA BLA BLA BLA BLA BLA BLA BLA BLA BLA BLA BLA BLA BLA 
BLA BLA BLA BLA BLA BLA BLA BLA BLA BLA BLA BLA BLA BLA BLA BLA BLA BLA BLA BLA 
BLA BLA BLA BLA BLA BLA BLA BLA BLA BLA BLA BLA BLA BLA BLA BLA BLA BLA BLA BLA 
BLA BLA BLA BLA BLA BLA BLA BLA BLA BLA BLA BLA BLA BLA BLA BLA BLA BLA BLA BLA 
BLA BLA BLA BLA BLA BLA BLA BLA BLA BLA BLA BLA BLA BLA BLA BLA BLA BLA BLA BLA 
BLA BLA BLA BLA BLA BLA BLA BLA BLA BLA BLA BLA BLA BLA BLA BLA BLA BLA BLA BLA 
BLA BLA BLA BLA BLA BLA BLA BLA BLA BLA BLA BLA BLA BLA BLA BLA BLA BLA BLA BLA 
BLA BLA BLA BLA BLA BLA BLA BLA BLA BLA BLA BLA BLA BLA BLA BLA BLA BLA BLA BLA 
BLA BLA BLA BLA BLA BLA BLA BLA BLA BLA BLA BLA BLA BLA BLA BLA BLA BLA BLA BLA 
BLA BLA BLA BLA BLA BLA BLA BLA BLA BLA BLA BLA BLA BLA BLA BLA BLA BLA BLA BLA 
BLA BLA BLA BLA BLA BLA BLA BLA BLA BLA BLA BLA BLA BLA BLA BLA BLA BLA BLA BLA 
BLA BLA BLA BLA BLA BLA BLA BLA BLA BLA BLA BLA BLA BLA BLA BLA BLA BLA BLA BLA 
BLA BLA BLA BLA BLA BLA BLA BLA BLA BLA BLA BLA BLA BLA BLA BLA BLA BLA BLA BLA 
BLA BLA BLA BLA BLA BLA BLA BLA BLA BLA BLA BLA BLA BLA BLA BLA BLA BLA BLA BLA 
BLA BLA BLA BLA BLA BLA BLA BLA BLA BLA BLA BLA BLA BLA BLA BLA BLA BLA BLA BLA 
BLA BLA BLA BLA BLA BLA BLA BLA BLA BLA BLA BLA BLA BLA BLA BLA BLA BLA BLA BLA 
BLA BLA BLA BLA BLA BLA BLA BLA BLA BLA BLA BLA BLA BLA BLA BLA BLA BLA BLA BLA 
BLA BLA BLA BLA BLA BLA BLA BLA BLA BLA BLA BLA BLA BLA BLA BLA BLA BLA BLA BLA 
BLA BLA BLA BLA BLA BLA BLA BLA BLA BLA BLA BLA BLA BLA BLA BLA BLA BLA BLA BLA 
BLA BLA BLA BLA BLA BLA BLA BLA BLA BLA BLA BLA BLA BLA BLA BLA BLA BLA BLA BLA 
BLA BLA BLA BLA BLA BLA BLA BLA BLA BLA BLA BLA BLA BLA BLA BLA BLA BLA BLA BLA 
BLA BLA BLA BLA BLA BLA BLA BLA BLA BLA BLA BLA BLA BLA BLA BLA BLA BLA BLA BLA 
BLA BLA BLA BLA BLA BLA BLA BLA BLA BLA BLA BLA BLA BLA BLA BLA BLA BLA BLA BLA 
BLA BLA BLA BLA BLA BLA BLA BLA BLA BLA BLA BLA BLA BLA BLA BLA BLA BLA BLA BLA 
BLA BLA BLA BLA BLA BLA BLA BLA BLA BLA BLA BLA BLA BLA BLA BLA BLA BLA BLA BLA 
BLA BLA BLA BLA BLA BLA BLA BLA BLA BLA BLA BLA BLA BLA BLA BLA BLA BLA BLA BLA 
BLA BLA BLA BLA BLA BLA BLA BLA BLA BLA BLA BLA BLA BLA BLA BLA BLA BLA BLA BLA 
BLA BLA BLA BLA BLA BLA BLA BLA BLA BLA BLA BLA BLA BLA BLA BLA BLA BLA BLA BLA 
BLA BLA BLA BLA BLA BLA BLA BLA BLA BLA BLA BLA BLA BLA BLA BLA BLA BLA BLA BLA 
BLA BLA BLA BLA BLA BLA BLA BLA BLA BLA BLA BLA BLA BLA BLA BLA BLA BLA BLA BLA 
BLA BLA BLA BLA BLA BLA BLA BLA BLA BLA BLA BLA BLA BLA BLA BLA BLA BLA BLA BLA 
BLA BLA BLA BLA BLA BLA BLA BLA BLA BLA BLA BLA BLA BLA BLA BLA BLA BLA BLA BLA 
BLA BLA BLA BLA BLA BLA BLA BLA BLA BLA BLA BLA BLA BLA BLA BLA BLA BLA BLA BLA 
BLA BLA BLA BLA BLA BLA BLA BLA BLA BLA BLA BLA BLA BLA BLA BLA BLA BLA BLA BLA 
BLA BLA BLA BLA BLA BLA BLA BLA BLA BLA BLA BLA BLA BLA BLA BLA BLA BLA BLA BLA 
BLA BLA BLA BLA BLA BLA BLA BLA BLA BLA BLA BLA BLA BLA BLA BLA BLA BLA BLA BLA 
BLA BLA BLA BLA BLA BLA BLA BLA BLA BLA BLA BLA BLA BLA BLA BLA BLA BLA BLA BLA 
BLA BLA BLA BLA BLA BLA BLA BLA BLA BLA BLA BLA BLA BLA BLA BLA BLA BLA BLA BLA 
BLA BLA BLA BLA BLA BLA BLA BLA BLA BLA BLA BLA BLA BLA BLA BLA BLA BLA BLA BLA 
BLA BLA BLA BLA BLA BLA BLA BLA BLA BLA BLA BLA BLA BLA BLA BLA BLA BLA BLA BLA 
BLA BLA BLA BLA BLA BLA BLA BLA BLA BLA BLA BLA BLA BLA BLA BLA BLA BLA BLA BLA 
BLA BLA BLA BLA BLA BLA BLA BLA BLA BLA BLA BLA BLA BLA BLA BLA BLA BLA BLA BLA 
BLA BLA BLA BLA BLA BLA BLA BLA BLA BLA BLA BLA BLA BLA BLA BLA BLA BLA BLA BLA 
BLA BLA BLA BLA BLA BLA BLA BLA BLA BLA BLA BLA BLA BLA BLA BLA BLA BLA BLA BLA 
BLA BLA BLA BLA BLA BLA BLA BLA BLA BLA BLA BLA BLA BLA BLA BLA BLA BLA BLA BLA 
BLA BLA BLA BLA BLA BLA BLA BLA BLA BLA BLA BLA BLA BLA BLA BLA BLA BLA BLA BLA 
BLA BLA BLA BLA BLA BLA BLA BLA BLA BLA BLA BLA BLA BLA BLA BLA BLA BLA BLA BLA 
BLA BLA BLA BLA BLA BLA BLA BLA BLA BLA BLA BLA BLA BLA BLA BLA BLA BLA BLA BLA 
BLA BLA BLA BLA BLA BLA BLA BLA BLA BLA BLA BLA BLA BLA BLA BLA BLA BLA BLA BLA 
BLA BLA BLA BLA BLA BLA BLA BLA BLA BLA BLA BLA BLA BLA BLA BLA BLA BLA BLA BLA 
BLA BLA BLA BLA BLA BLA BLA BLA BLA BLA BLA BLA BLA BLA BLA BLA BLA BLA BLA BLA 
BLA BLA BLA BLA BLA BLA BLA BLA BLA BLA BLA BLA BLA BLA BLA BLA BLA BLA BLA BLA 
BLA BLA BLA BLA BLA BLA BLA BLA BLA BLA BLA BLA BLA BLA BLA BLA BLA BLA BLA BLA 
BLA BLA BLA BLA BLA BLA BLA BLA BLA BLA BLA BLA BLA BLA BLA BLA BLA BLA BLA BLA 
BLA BLA BLA BLA BLA BLA BLA BLA BLA BLA BLA BLA BLA BLA BLA BLA BLA BLA BLA BLA 
BLA BLA BLA BLA BLA BLA BLA BLA BLA BLA BLA BLA BLA BLA BLA BLA BLA BLA BLA BLA 
BLA BLA BLA BLA BLA BLA BLA BLA BLA BLA BLA BLA BLA BLA BLA BLA BLA BLA BLA BLA 
BLA BLA BLA BLA BLA BLA BLA BLA BLA BLA BLA BLA BLA BLA BLA BLA BLA BLA BLA BLA 
BLA BLA BLA BLA BLA BLA BLA BLA BLA BLA BLA BLA BLA BLA BLA BLA BLA BLA BLA BLA 
BLA BLA BLA BLA BLA BLA BLA BLA BLA BLA BLA BLA BLA BLA BLA BLA BLA BLA BLA BLA 
BLA BLA BLA BLA BLA BLA BLA BLA BLA BLA BLA BLA BLA BLA BLA BLA BLA BLA BLA BLA 
BLA BLA BLA BLA BLA BLA BLA BLA BLA BLA BLA BLA BLA BLA BLA BLA BLA BLA BLA BLA 
BLA BLA BLA BLA BLA BLA BLA BLA BLA BLA BLA BLA BLA BLA BLA BLA BLA BLA BLA BLA 
BLA BLA BLA BLA BLA BLA BLA BLA BLA BLA BLA BLA BLA BLA BLA BLA BLA BLA BLA BLA 
BLA BLA BLA BLA BLA BLA BLA BLA BLA BLA BLA BLA BLA BLA BLA BLA BLA BLA BLA BLA 
BLA BLA BLA BLA BLA BLA BLA BLA BLA BLA BLA BLA BLA BLA BLA BLA BLA BLA BLA BLA 
BLA BLA BLA BLA BLA BLA BLA BLA BLA BLA BLA BLA BLA BLA BLA BLA BLA BLA BLA BLA 
BLA BLA BLA BLA BLA BLA BLA BLA BLA BLA BLA BLA BLA BLA BLA BLA BLA BLA BLA BLA 
BLA BLA BLA BLA BLA BLA BLA BLA BLA BLA BLA BLA BLA BLA BLA BLA BLA BLA BLA BLA 
BLA BLA BLA BLA BLA BLA BLA BLA BLA BLA BLA BLA BLA BLA BLA BLA BLA BLA BLA BLA 
BLA BLA BLA BLA BLA BLA BLA BLA BLA BLA BLA BLA BLA BLA BLA BLA BLA BLA BLA BLA 
BLA BLA BLA BLA BLA BLA BLA BLA BLA BLA BLA BLA BLA BLA BLA BLA BLA BLA BLA BLA 
BLA BLA BLA BLA BLA BLA BLA BLA BLA BLA BLA BLA BLA BLA BLA BLA BLA BLA BLA BLA 
BLA BLA BLA BLA BLA BLA BLA BLA BLA BLA BLA BLA BLA BLA BLA BLA BLA BLA BLA BLA 
BLA BLA BLA BLA BLA BLA BLA BLA BLA BLA BLA BLA BLA BLA BLA BLA BLA BLA BLA BLA 
BLA BLA BLA BLA BLA BLA BLA BLA BLA BLA BLA BLA BLA BLA BLA BLA BLA BLA BLA BLA 
BLA BLA BLA BLA BLA BLA BLA BLA BLA BLA BLA BLA BLA BLA BLA BLA BLA BLA BLA BLA 
BLA BLA BLA BLA BLA BLA BLA BLA BLA BLA BLA BLA BLA BLA BLA BLA BLA BLA BLA BLA 
BLA BLA BLA BLA BLA BLA BLA BLA BLA BLA BLA BLA BLA BLA BLA BLA BLA BLA BLA BLA 
BLA BLA BLA BLA BLA BLA BLA BLA BLA BLA BLA BLA BLA BLA BLA BLA BLA BLA BLA BLA 
BLA BLA BLA BLA BLA BLA BLA BLA BLA BLA BLA BLA BLA BLA BLA BLA BLA BLA BLA BLA 
BLA BLA BLA BLA BLA BLA BLA BLA BLA BLA BLA BLA BLA BLA BLA BLA BLA BLA BLA BLA 
BLA BLA BLA BLA BLA BLA BLA BLA BLA BLA BLA BLA BLA BLA BLA BLA BLA BLA BLA BLA 
BLA BLA BLA BLA BLA BLA BLA BLA BLA BLA BLA BLA BLA BLA BLA BLA BLA BLA BLA BLA 
BLA BLA BLA BLA BLA BLA BLA BLA BLA BLA BLA BLA BLA BLA BLA BLA BLA BLA BLA BLA 
BLA BLA BLA BLA BLA BLA BLA BLA BLA BLA BLA BLA BLA BLA BLA BLA BLA BLA BLA BLA 
BLA BLA BLA BLA BLA BLA BLA BLA BLA BLA BLA BLA BLA BLA BLA BLA BLA BLA BLA BLA 
BLA BLA BLA BLA BLA BLA BLA BLA BLA BLA BLA BLA BLA BLA BLA BLA BLA BLA BLA BLA 
BLA BLA BLA BLA BLA BLA BLA BLA BLA BLA BLA BLA BLA BLA BLA BLA BLA BLA BLA BLA 
BLA BLA BLA BLA BLA BLA BLA BLA BLA BLA BLA BLA BLA BLA BLA BLA BLA BLA BLA BLA 
BLA BLA BLA BLA BLA BLA BLA BLA BLA BLA BLA BLA BLA BLA BLA BLA BLA BLA BLA BLA 
BLA BLA BLA BLA BLA BLA BLA BLA BLA BLA BLA BLA BLA BLA BLA BLA BLA BLA BLA BLA 
BLA BLA BLA BLA BLA BLA BLA BLA BLA BLA BLA BLA BLA BLA BLA BLA BLA BLA BLA BLA 
BLA BLA BLA BLA BLA BLA BLA BLA BLA BLA BLA BLA BLA BLA BLA BLA BLA BLA BLA BLA 
BLA BLA BLA BLA BLA BLA BLA BLA BLA BLA BLA BLA BLA BLA BLA BLA BLA BLA BLA BLA 
BLA BLA BLA BLA BLA BLA BLA BLA BLA BLA BLA BLA BLA BLA BLA BLA BLA BLA BLA BLA 
BLA BLA BLA BLA BLA BLA BLA BLA BLA BLA BLA BLA BLA BLA BLA BLA BLA BLA BLA BLA 
BLA BLA BLA BLA BLA BLA BLA BLA BLA BLA BLA BLA BLA BLA BLA BLA BLA BLA BLA BLA 
BLA BLA BLA BLA BLA BLA BLA BLA BLA BLA BLA BLA BLA BLA BLA BLA BLA BLA BLA BLA 
BLA BLA BLA BLA BLA BLA BLA BLA BLA BLA BLA BLA BLA BLA BLA BLA BLA BLA BLA BLA 
BLA BLA BLA BLA BLA BLA BLA BLA BLA BLA BLA BLA BLA BLA BLA BLA BLA BLA BLA BLA 
BLA BLA BLA BLA BLA BLA BLA BLA BLA BLA BLA BLA BLA BLA BLA BLA BLA BLA BLA BLA 
BLA BLA BLA BLA BLA BLA BLA BLA BLA BLA BLA BLA BLA BLA BLA BLA BLA BLA BLA BLA 
BLA BLA BLA BLA BLA BLA BLA BLA BLA BLA BLA BLA BLA BLA BLA BLA BLA BLA BLA BLA 
BLA BLA BLA BLA BLA BLA BLA BLA BLA BLA BLA BLA BLA BLA BLA BLA BLA BLA BLA BLA 
BLA BLA BLA BLA BLA BLA BLA BLA BLA BLA BLA BLA BLA BLA BLA BLA BLA BLA BLA BLA 
BLA BLA BLA BLA BLA BLA BLA BLA BLA BLA BLA BLA BLA BLA BLA BLA BLA BLA BLA BLA 
BLA BLA BLA BLA BLA BLA BLA BLA BLA BLA BLA BLA BLA BLA BLA BLA BLA BLA BLA BLA 
BLA BLA BLA BLA BLA BLA BLA BLA BLA BLA BLA BLA BLA BLA BLA BLA BLA BLA BLA BLA 
BLA BLA BLA BLA BLA BLA BLA BLA BLA BLA BLA BLA BLA BLA BLA BLA BLA BLA BLA BLA 
BLA BLA BLA BLA BLA BLA BLA BLA BLA BLA BLA BLA BLA BLA BLA BLA BLA BLA BLA BLA 
BLA BLA BLA BLA BLA BLA BLA BLA BLA BLA BLA BLA BLA BLA BLA BLA BLA BLA BLA BLA 
BLA BLA BLA BLA BLA BLA BLA BLA BLA BLA BLA BLA BLA BLA BLA BLA BLA BLA BLA BLA 
BLA BLA BLA BLA BLA BLA BLA BLA BLA BLA BLA BLA BLA BLA BLA BLA BLA BLA BLA BLA 
BLA BLA BLA BLA BLA BLA BLA BLA BLA BLA BLA BLA BLA BLA BLA BLA BLA BLA BLA BLA 
BLA BLA BLA BLA BLA BLA BLA BLA BLA BLA BLA BLA BLA BLA BLA BLA BLA BLA BLA BLA 
BLA BLA BLA BLA BLA BLA BLA BLA BLA BLA BLA BLA BLA BLA BLA BLA BLA BLA BLA BLA 
BLA BLA BLA BLA BLA BLA BLA BLA BLA BLA BLA BLA BLA BLA BLA BLA BLA BLA BLA BLA 
BLA BLA BLA BLA BLA BLA BLA BLA BLA BLA BLA BLA BLA BLA BLA BLA BLA BLA BLA BLA 
BLA BLA BLA BLA BLA BLA BLA BLA BLA BLA BLA BLA BLA BLA BLA BLA BLA BLA BLA BLA 
BLA BLA BLA BLA BLA BLA BLA BLA BLA BLA BLA BLA BLA BLA BLA BLA BLA BLA BLA BLA 
BLA BLA BLA BLA BLA BLA BLA BLA BLA BLA BLA BLA BLA BLA BLA BLA BLA BLA BLA BLA 
BLA BLA BLA BLA BLA BLA BLA BLA BLA BLA BLA BLA BLA BLA BLA BLA BLA BLA BLA BLA 
BLA BLA BLA BLA BLA BLA BLA BLA BLA BLA BLA BLA BLA BLA BLA BLA BLA BLA BLA BLA 
BLA BLA BLA BLA BLA BLA BLA BLA BLA BLA BLA BLA BLA BLA BLA BLA BLA BLA BLA BLA 
BLA BLA BLA BLA BLA BLA BLA BLA BLA BLA BLA BLA BLA BLA BLA BLA BLA BLA BLA BLA 
BLA BLA BLA BLA BLA BLA BLA BLA BLA BLA BLA BLA BLA BLA BLA BLA BLA BLA BLA BLA 
BLA BLA BLA BLA BLA BLA BLA BLA BLA BLA BLA BLA BLA BLA BLA BLA BLA BLA BLA BLA 
BLA BLA BLA BLA BLA BLA BLA BLA BLA BLA BLA BLA BLA BLA BLA BLA BLA BLA BLA BLA 
BLA BLA BLA BLA BLA BLA BLA BLA BLA BLA BLA BLA BLA BLA BLA BLA BLA BLA BLA BLA 
BLA BLA BLA BLA BLA BLA BLA BLA BLA BLA BLA BLA BLA BLA BLA BLA BLA BLA BLA BLA 
BLA BLA BLA BLA BLA BLA BLA BLA BLA BLA BLA BLA BLA BLA BLA BLA BLA BLA BLA BLA 
BLA BLA BLA BLA BLA BLA BLA BLA BLA BLA BLA BLA BLA BLA BLA BLA BLA BLA BLA BLA 
BLA BLA BLA BLA BLA BLA BLA BLA BLA BLA BLA BLA BLA BLA BLA BLA BLA BLA BLA BLA 
BLA BLA BLA BLA BLA BLA BLA BLA BLA BLA BLA BLA BLA BLA BLA BLA BLA BLA BLA BLA 
BLA BLA BLA BLA BLA BLA BLA BLA BLA BLA BLA BLA BLA BLA BLA BLA BLA BLA BLA BLA 
BLA BLA BLA BLA BLA BLA BLA BLA BLA BLA BLA BLA BLA BLA BLA BLA BLA BLA BLA BLA 
BLA BLA BLA BLA BLA BLA BLA BLA BLA BLA BLA BLA BLA BLA BLA BLA BLA BLA BLA BLA 
BLA BLA BLA BLA BLA BLA BLA BLA BLA BLA BLA BLA BLA BLA BLA BLA BLA BLA BLA BLA 
BLA BLA BLA BLA BLA BLA BLA BLA BLA BLA BLA BLA BLA BLA BLA BLA BLA BLA BLA BLA 
BLA BLA BLA BLA BLA BLA BLA BLA BLA BLA BLA BLA BLA BLA BLA BLA BLA BLA BLA BLA 
BLA BLA BLA BLA BLA BLA BLA BLA BLA BLA BLA BLA BLA BLA BLA BLA BLA BLA BLA BLA 
BLA BLA BLA BLA BLA BLA BLA BLA BLA BLA BLA BLA BLA BLA BLA BLA BLA BLA BLA BLA 
BLA BLA BLA BLA BLA BLA BLA BLA BLA BLA BLA BLA BLA BLA BLA BLA BLA BLA BLA BLA 
BLA BLA BLA BLA BLA BLA BLA BLA BLA BLA BLA BLA BLA BLA BLA BLA BLA BLA BLA BLA 
BLA BLA BLA BLA BLA BLA BLA BLA BLA BLA BLA BLA BLA BLA BLA BLA BLA BLA BLA BLA 
BLA BLA BLA BLA BLA BLA BLA BLA BLA BLA BLA BLA BLA BLA BLA BLA BLA BLA BLA BLA 
BLA BLA BLA BLA BLA BLA BLA BLA BLA BLA BLA BLA BLA BLA BLA BLA BLA BLA BLA BLA 
BLA BLA BLA BLA BLA BLA BLA BLA BLA BLA BLA BLA BLA BLA BLA BLA BLA BLA BLA BLA 
BLA BLA BLA BLA BLA BLA BLA BLA BLA BLA BLA BLA BLA BLA BLA BLA BLA BLA BLA BLA 
BLA BLA BLA BLA BLA BLA BLA BLA BLA BLA BLA BLA BLA BLA BLA BLA BLA BLA BLA BLA 
BLA BLA BLA BLA BLA BLA BLA BLA BLA BLA BLA BLA BLA BLA BLA BLA BLA BLA BLA BLA 
BLA BLA BLA BLA BLA BLA BLA BLA BLA BLA BLA BLA BLA BLA BLA BLA BLA BLA BLA BLA 
BLA BLA BLA BLA BLA BLA BLA BLA BLA BLA BLA BLA BLA BLA BLA BLA BLA BLA BLA BLA 
BLA BLA BLA BLA BLA BLA BLA BLA BLA BLA BLA BLA BLA BLA BLA BLA BLA BLA BLA BLA 
BLA BLA BLA BLA BLA BLA BLA BLA BLA BLA BLA BLA BLA BLA BLA BLA BLA BLA BLA BLA 
BLA BLA BLA BLA BLA BLA BLA BLA BLA BLA BLA BLA BLA BLA BLA BLA BLA BLA BLA BLA 
BLA BLA BLA BLA BLA BLA BLA BLA BLA BLA BLA BLA BLA BLA BLA BLA BLA BLA BLA BLA 
BLA BLA BLA BLA BLA BLA BLA BLA BLA BLA BLA BLA BLA BLA BLA BLA BLA BLA BLA BLA 
BLA BLA BLA BLA BLA BLA BLA BLA BLA BLA BLA BLA BLA BLA BLA BLA BLA BLA BLA BLA 
BLA BLA BLA BLA BLA BLA BLA BLA BLA BLA BLA BLA BLA BLA BLA BLA BLA BLA BLA BLA 
BLA BLA BLA BLA BLA BLA BLA BLA BLA BLA BLA BLA BLA BLA BLA BLA BLA BLA BLA BLA 
BLA BLA BLA BLA BLA BLA BLA BLA BLA BLA BLA BLA BLA BLA BLA BLA BLA BLA BLA BLA 
BLA BLA BLA BLA BLA BLA BLA BLA BLA BLA BLA BLA BLA BLA BLA BLA BLA BLA BLA BLA 
BLA BLA BLA BLA BLA BLA BLA BLA BLA BLA BLA BLA BLA BLA BLA BLA BLA BLA BLA BLA 
BLA BLA BLA BLA BLA BLA BLA BLA BLA BLA BLA BLA BLA BLA BLA BLA BLA BLA BLA BLA 
BLA BLA BLA BLA BLA BLA BLA BLA BLA BLA BLA BLA BLA BLA BLA BLA BLA BLA BLA BLA 
BLA BLA BLA BLA BLA BLA BLA BLA BLA BLA BLA BLA BLA BLA BLA BLA BLA BLA BLA BLA 
BLA BLA BLA BLA BLA BLA BLA BLA BLA BLA BLA BLA BLA BLA BLA BLA BLA BLA BLA BLA 
BLA BLA BLA BLA BLA BLA BLA BLA BLA BLA BLA BLA BLA BLA BLA BLA BLA BLA BLA BLA 
BLA BLA BLA BLA BLA BLA BLA BLA BLA BLA BLA BLA BLA BLA BLA BLA BLA BLA BLA BLA 
BLA BLA BLA BLA BLA BLA BLA BLA BLA BLA BLA BLA BLA BLA BLA BLA BLA BLA BLA BLA 
BLA BLA BLA BLA BLA BLA BLA BLA BLA BLA BLA BLA BLA BLA BLA BLA BLA BLA BLA BLA 
BLA BLA BLA BLA BLA BLA BLA BLA BLA BLA BLA BLA BLA BLA BLA BLA BLA BLA BLA BLA 
BLA BLA BLA BLA BLA BLA BLA BLA BLA BLA BLA BLA BLA BLA BLA BLA BLA BLA BLA BLA 
BLA BLA BLA BLA BLA BLA BLA BLA BLA BLA BLA BLA BLA BLA BLA BLA BLA BLA BLA BLA 
BLA BLA BLA BLA BLA BLA BLA BLA BLA BLA BLA BLA BLA BLA BLA BLA BLA BLA BLA BLA 
BLA BLA BLA BLA BLA BLA BLA BLA BLA BLA BLA BLA BLA BLA BLA BLA BLA BLA BLA BLA 
BLA BLA BLA BLA BLA BLA BLA BLA BLA BLA BLA BLA BLA BLA BLA BLA BLA BLA BLA BLA 
%FLAG JOIN_ARRAY                                                                
%FORMAT(10I8)                                                                   
       0       0       0       0       0       0       0       0       0       0
       0       0       0       0       0       0       0       0       0       0
       0       0       0       0       0       0       0       0       0       0
       0       0       0       0       0       0       0       0       0       0
       0       0       0       0       0       0       0       0       0       0
       0       0       0       0       0       0       0       0       0       0
       0       0       0       0       0       0       0       0       0       0
       0       0       0       0       0       0       0       0       0       0
       0       0       0       0       0       0       0       0       0       0
       0       0       0       0       0       0       0       0       0       0
       0       0       0       0       0       0       0       0       0       0
       0       0       0       0       0       0       0       0       0       0
       0       0       0       0       0       0       0       0       0       0
       0       0       0       0       0       0       0       0       0       0
       0       0       0       0       0       0       0       0       0       0
       0       0       0       0       0       0       0       0       0       0
       0       0       0       0       0       0       0       0       0       0
       0       0       0       0       0       0       0       0       0       0
       0       0       0       0       0       0       0       0       0       0
       0       0       0       0       0       0       0       0       0       0
       0       0       0       0       0       0       0       0       0       0
       0       0       0       0       0       0       0       0       0       0
       0       0       0       0       0       0       0       0       0       0
       0       0       0       0       0       0       0       0       0       0
       0       0       0       0       0       0       0       0       0       0
       0       0       0       0       0       0       0       0       0       0
       0       0       0       0       0       0       0       0       0       0
       0       0       0       0       0       0       0       0       0       0
       0       0       0       0       0       0       0       0       0       0
       0       0       0       0       0       0       0       0       0       0
       0       0       0       0       0       0       0       0       0       0
       0       0       0       0       0       0       0       0       0       0
       0       0       0       0       0       0       0       0       0       0
       0       0       0       0       0       0       0       0       0       0
       0       0       0       0       0       0       0       0       0       0
       0       0       0       0       0       0       0       0       0       0
       0       0       0       0       0       0       0       0       0       0
       0       0       0       0       0       0       0       0       0       0
       0       0       0       0       0       0       0       0       0       0
       0       0       0       0       0       0       0       0       0       0
       0       0       0       0       0       0       0       0       0       0
       0       0       0       0       0       0       0       0       0       0
       0       0       0       0       0       0       0       0       0       0
       0       0       0       0       0       0       0       0       0       0
       0       0       0       0       0       0       0       0       0       0
       0       0       0       0       0       0       0       0       0       0
       0       0       0       0       0       0       0       0       0       0
       0       0       0       0       0       0       0       0       0       0
       0       0       0       0       0       0       0       0       0       0
       0       0       0       0       0       0       0       0       0       0
       0       0       0       0       0       0       0       0       0       0
       0       0       0       0       0       0       0       0       0       0
       0       0       0       0       0       0       0       0       0       0
       0       0       0       0       0       0       0       0       0       0
       0       0       0       0       0       0       0       0       0       0
       0       0       0       0       0       0       0       0       0       0
       0       0       0       0       0       0       0       0       0       0
       0       0       0       0       0       0       0       0       0       0
       0       0       0       0       0       0       0       0       0       0
       0       0       0       0       0       0       0       0       0       0
       0       0       0       0       0       0       0       0       0       0
       0       0       0       0       0       0       0       0       0       0
       0       0       0       0       0       0       0       0       0       0
       0       0       0       0       0       0       0       0       0       0
       0       0       0       0       0       0       0       0       0       0
       0       0       0       0       0       0       0       0       0       0
       0       0       0       0       0       0       0       0       0       0
       0       0       0       0       0       0       0       0       0       0
       0       0       0       0       0       0       0       0       0       0
       0       0       0       0       0       0       0       0       0       0
       0       0       0       0       0       0       0       0       0       0
       0       0       0       0       0       0       0       0       0       0
       0       0       0       0       0       0       0       0       0       0
       0       0       0       0       0       0       0       0       0       0
       0       0       0       0       0       0       0       0       0       0
       0       0       0       0       0       0       0       0       0       0
       0       0       0       0       0       0       0       0       0       0
       0       0       0       0       0       0       0       0       0       0
       0       0       0       0       0       0       0       0       0       0
       0       0       0       0       0       0       0       0       0       0
       0       0       0       0       0       0       0       0       0       0
       0       0       0       0       0       0       0       0       0       0
       0       0       0       0       0       0       0       0       0       0
       0       0       0       0       0       0       0       0       0       0
       0       0       0       0       0       0       0       0       0       0
       0       0       0       0       0       0       0       0       0       0
       0       0       0       0       0       0       0       0       0       0
       0       0       0       0       0       0       0       0       0       0
       0       0       0       0       0       0       0       0       0       0
       0       0       0       0       0       0       0       0       0       0
       0       0       0       0       0       0       0       0       0       0
       0       0       0       0       0       0       0       0       0       0
       0       0       0       0       0       0       0       0       0       0
       0       0       0       0       0       0       0       0       0       0
       0       0       0       0       0       0       0       0       0       0
       0       0       0       0       0       0       0       0       0       0
       0       0       0       0       0       0       0       0       0       0
       0       0       0       0       0       0       0       0       0       0
       0       0       0       0       0       0       0       0       0       0
       0       0       0       0       0       0       0       0       0       0
       0       0       0       0       0       0       0       0       0       0
       0       0       0       0       0       0       0       0       0       0
       0       0       0       0       0       0       0       0       0       0
       0       0       0       0       0       0       0       0       0       0
       0       0       0       0       0       0       0       0       0       0
       0       0       0       0       0       0       0       0       0       0
       0       0       0       0       0       0       0       0       0       0
       0       0       0       0       0       0       0       0       0       0
       0       0       0       0       0       0       0       0       0       0
       0       0       0       0       0       0       0       0       0       0
       0       0       0       0       0       0       0       0       0       0
       0       0       0       0       0       0       0       0       0       0
       0       0       0       0       0       0       0       0       0       0
       0       0       0       0       0       0       0       0       0       0
       0       0       0       0       0       0       0       0       0       0
       0       0       0       0       0       0       0       0       0       0
       0       0       0       0       0       0       0       0       0       0
       0       0       0       0       0       0       0       0       0       0
       0       0       0       0       0       0       0       0       0       0
       0       0       0       0       0       0       0       0       0       0
       0       0       0       0       0       0       0       0       0       0
       0       0       0       0       0       0       0       0       0       0
       0       0       0       0       0       0       0       0       0       0
       0       0       0       0       0       0       0       0       0       0
       0       0       0       0       0       0       0       0       0       0
       0       0       0       0       0       0       0       0       0       0
       0       0       0       0       0       0       0       0       0       0
       0       0       0       0       0       0       0       0       0       0
       0       0       0       0       0       0       0       0       0       0
       0       0       0       0       0       0       0       0       0       0
       0       0       0       0       0       0       0       0       0       0
       0       0       0       0       0       0       0       0       0       0
       0       0       0       0       0       0       0       0       0       0
       0       0       0       0       0       0       0       0       0       0
       0       0       0       0       0       0       0       0       0       0
       0       0       0       0       0       0       0       0       0       0
       0       0       0       0       0       0       0       0       0       0
       0       0       0       0       0       0       0       0       0       0
       0       0       0       0       0       0       0       0       0       0
       0       0       0       0       0       0       0       0       0       0
       0       0       0       0       0       0       0       0       0       0
       0       0       0       0       0       0       0       0       0       0
       0       0       0       0       0       0       0       0       0       0
       0       0       0       0       0       0       0       0       0       0
       0       0       0       0       0       0       0       0       0       0
       0       0       0       0       0       0       0       0       0       0
       0       0       0       0       0       0       0       0       0       0
       0       0       0       0       0       0       0       0       0       0
       0       0       0       0       0       0       0       0       0       0
       0       0       0       0       0       0       0       0       0       0
       0       0       0       0       0       0       0       0       0       0
       0       0       0       0       0       0       0       0       0       0
       0       0       0       0       0       0       0       0       0       0
       0       0       0       0       0       0       0       0       0       0
       0       0       0       0       0       0       0       0       0       0
       0       0       0       0       0       0       0       0       0       0
       0       0       0       0       0       0       0       0       0       0
       0       0       0       0       0       0       0       0       0       0
       0       0       0       0       0       0       0       0       0       0
       0       0       0       0       0       0       0       0       0       0
       0       0       0       0       0       0       0       0       0       0
       0       0       0       0       0       0       0       0       0       0
       0       0       0       0       0       0       0       0       0       0
       0       0       0       0       0       0       0       0       0       0
       0       0       0       0       0       0       0       0       0       0
       0       0       0       0       0       0       0       0       0       0
       0       0       0       0       0       0       0       0       0       0
       0       0       0       0       0       0       0       0       0       0
       0       0       0       0       0       0       0       0       0       0
       0       0       0       0       0       0       0       0       0       0
       0       0       0       0       0       0       0       0       0       0
       0       0       0       0       0       0       0       0       0       0
       0       0       0       0       0       0       0       0       0       0
       0       0       0       0       0       0       0       0       0       0
       0       0       0       0       0       0       0       0       0       0
       0       0       0       0       0       0       0       0       0       0
       0       0       0       0       0       0       0       0       0       0
       0       0       0       0       0       0       0       0       0       0
       0       0       0       0       0       0       0       0       0       0
       0       0       0       0       0       0       0       0       0       0
       0       0       0       0       0       0       0       0       0       0
       0       0       0       0       0       0       0       0       0       0
       0       0       0       0       0       0       0       0       0       0
       0       0       0       0       0       0       0       0       0       0
       0       0       0       0       0       0       0       0       0       0
       0       0       0       0       0       0       0       0       0       0
       0       0       0       0       0       0       0       0       0       0
       0       0       0       0       0       0       0       0       0       0
       0       0       0       0       0       0       0       0       0       0
       0       0       0       0       0       0       0       0       0       0
       0       0       0       0       0       0       0       0       0       0
       0       0       0       0       0       0       0       0       0       0
       0       0       0       0       0       0       0       0       0       0
       0       0       0       0       0       0       0       0       0       0
       0       0       0       0       0       0       0       0       0       0
       0       0       0       0       0       0       0       0       0       0
       0       0       0       0       0       0       0       0       0       0
       0       0       0       0       0       0       0       0       0       0
       0       0       0       0       0       0       0       0       0       0
       0       0       0       0       0       0       0       0       0       0
       0       0       0       0       0       0       0       0       0       0
       0       0       0       0       0       0       0       0       0       0
       0       0       0       0       0       0       0       0       0       0
       0       0       0       0       0       0       0       0       0       0
       0       0       0       0       0       0       0       0       0       0
       0       0       0       0       0       0       0       0       0       0
       0       0       0       0       0       0       0       0       0       0
       0       0       0       0       0       0       0       0       0       0
       0       0       0       0       0       0       0       0       0       0
       0       0       0       0       0       0       0       0       0       0
       0       0       0       0       0       0       0       0       0       0
       0       0       0       0       0       0       0       0       0       0
       0       0       0       0       0       0       0       0       0       0
       0       0       0       0       0       0       0       0       0       0
       0       0       0       0       0       0       0       0       0       0
       0       0       0       0       0       0       0       0       0       0
       0       0       0       0       0       0       0       0       0       0
       0       0       0       0       0       0       0       0       0       0
       0       0       0       0       0       0       0       0       0       0
       0       0       0       0       0       0       0       0       0       0
       0       0       0       0       0       0       0       0       0       0
       0       0       0       0       0       0       0       0       0       0
       0       0       0       0       0       0       0       0       0       0
       0       0       0       0       0       0       0       0       0       0
       0       0       0       0       0       0       0       0       0       0
       0       0       0       0       0       0       0       0       0       0
       0       0       0       0       0       0       0       0       0       0
       0       0       0       0       0       0       0       0       0       0
       0       0       0       0       0       0       0       0       0       0
       0       0       0       0       0       0       0       0       0       0
       0       0       0       0       0       0       0       0       0       0
       0       0       0       0       0       0       0       0       0       0
       0       0       0       0       0       0       0       0       0       0
       0       0       0       0       0       0       0       0       0       0
       0       0       0       0       0       0       0       0       0       0
       0       0       0       0       0       0       0       0       0       0
       0       0       0       0       0       0       0       0       0       0
       0       0       0       0       0       0       0       0       0       0
       0       0       0       0       0       0       0       0       0       0
       0       0       0       0       0       0       0       0       0       0
       0       0       0       0       0       0       0       0       0       0
       0       0       0       0       0       0       0       0       0       0
       0       0       0       0       0       0       0       0       0       0
       0       0       0       0       0       0       0       0       0       0
       0       0       0       0       0       0       0       0       0       0
       0       0       0       0       0       0       0       0       0       0
       0       0       0       0       0       0       0       0       0       0
       0       0       0       0       0       0       0       0       0       0
       0       0       0       0       0       0       0       0       0       0
       0       0       0       0       0       0       0       0       0       0
       0       0       0       0       0       0       0       0       0       0
       0       0       0       0       0       0       0       0       0       0
       0       0       0       0       0       0       0       0       0       0
       0       0       0       0       0       0       0       0       0       0
       0       0       0       0       0       0       0       0       0       0
       0       0       0       0       0       0       0       0       0       0
       0       0       0       0       0       0       0       0       0       0
       0       0       0       0       0       0       0       0       0       0
       0       0       0       0       0       0       0       0       0       0
       0       0       0       0       0       0       0       0       0       0
       0       0       0       0       0       0       0       0       0       0
       0       0       0       0       0       0       0       0       0       0
       0       0       0       0       0       0       0       0       0       0
       0       0       0       0       0       0       0       0       0       0
       0       0       0       0       0       0       0       0       0       0
       0       0       0       0       0       0       0       0       0       0
       0       0       0       0       0       0       0       0       0       0
       0       0       0       0       0       0       0       0       0       0
       0       0       0       0       0       0       0       0       0       0
       0       0       0       0       0       0       0       0       0       0
       0       0       0       0       0       0       0       0       0       0
       0       0       0       0       0       0       0       0       0       0
       0       0       0       0       0       0       0       0       0       0
       0       0       0       0       0       0       0       0       0       0
       0       0       0       0       0       0       0       0       0       0
       0       0       0       0       0       0       0       0       0       0
       0       0       0       0       0       0       0       0       0       0
       0       0       0       0       0       0       0       0       0       0
       0       0       0       0       0       0       0       0       0       0
       0       0       0       0       0       0       0       0       0       0
       0       0       0       0       0       0       0       0       0       0
       0       0       0       0       0       0       0       0       0       0
       0       0       0       0       0       0       0       0       0       0
       0       0       0       0       0       0       0       0       0       0
       0       0       0       0       0       0       0       0       0       0
       0       0       0       0       0       0       0       0       0       0
       0       0       0       0       0       0       0       0       0       0
       0       0       0       0       0       0       0       0       0       0
       0       0       0       0       0       0       0       0       0       0
       0       0       0       0       0       0       0       0       0       0
       0       0       0       0       0       0       0       0       0       0
       0       0       0       0       0       0       0       0       0       0
       0       0       0       0       0       0       0       0       0       0
       0       0       0       0       0       0       0       0       0       0
       0       0       0       0       0       0       0       0       0       0
       0       0       0       0       0       0       0       0       0       0
       0       0       0       0       0       0       0       0       0       0
       0       0       0       0       0       0       0       0       0       0
       0       0       0       0       0       0       0       0       0       0
       0       0       0       0       0       0       0       0       0       0
       0       0       0       0       0       0       0       0       0       0
       0       0       0       0       0       0       0       0       0       0
       0       0       0       0       0       0       0       0       0       0
       0       0       0       0       0       0       0       0       0       0
       0       0       0       0       0       0       0       0       0       0
       0       0       0       0       0       0       0       0       0       0
       0       0       0       0       0       0       0       0       0       0
       0       0       0       0       0       0       0       0       0       0
       0       0       0       0       0       0       0       0       0       0
       0       0       0       0       0       0       0       0       0       0
       0       0       0       0       0       0       0       0       0       0
       0       0       0       0       0       0       0       0       0       0
       0       0       0       0       0       0       0       0       0       0
       0       0       0       0       0       0       0       0       0       0
       0       0       0       0       0       0       0       0       0       0
       0       0       0       0       0       0       0       0       0       0
       0       0       0       0       0       0       0       0       0       0
       0       0       0       0       0       0       0       0       0       0
       0       0       0       0       0       0       0       0       0       0
       0       0       0       0       0       0       0       0       0       0
       0       0       0       0       0       0       0       0       0       0
       0       0       0       0       0       0       0       0       0       0
       0       0       0       0       0       0       0       0       0       0
       0       0       0       0       0       0       0       0       0       0
       0       0       0       0       0       0       0       0       0       0
       0       0       0       0       0       0       0       0       0       0
       0       0       0       0       0       0       0       0       0       0
       0       0       0       0       0       0       0       0       0       0
       0       0       0       0       0       0       0       0       0       0
       0       0       0       0       0       0       0       0       0       0
       0       0       0       0       0       0       0       0       0       0
       0       0       0       0       0       0       0       0       0       0
       0       0       0       0       0       0       0       0       0       0
       0       0       0       0       0       0       0       0       0       0
       0       0       0       0       0       0       0       0       0       0
       0       0       0       0       0       0       0       0       0       0
       0       0       0       0       0       0       0       0       0       0
       0       0       0       0       0       0       0       0       0       0
       0       0       0       0       0       0       0       0       0       0
       0       0       0       0       0       0       0       0       0       0
       0       0       0       0       0       0       0       0       0       0
       0       0       0       0       0       0       0       0       0       0
       0       0       0       0       0       0       0       0       0       0
       0       0       0       0       0       0       0       0       0       0
       0       0       0       0       0       0       0       0       0       0
       0       0       0       0       0       0       0       0       0       0
       0       0       0       0       0       0       0       0       0       0
       0       0       0       0       0       0       0       0       0       0
       0       0       0       0       0       0       0       0       0       0
       0       0       0       0       0       0       0       0       0       0
       0       0       0       0       0       0       0       0       0       0
       0       0       0       0       0       0       0       0       0       0
       0       0       0       0       0       0       0       0       0       0
       0       0       0       0       0       0       0       0       0       0
       0       0       0       0       0       0       0       0       0       0
       0       0       0       0       0       0       0       0       0       0
       0       0       0       0       0       0       0       0       0       0
       0       0       0       0       0       0       0       0       0       0
       0       0       0       0       0       0       0       0       0       0
       0       0       0       0       0       0       0       0       0       0
       0       0       0       0       0       0       0       0       0       0
       0       0       0       0       0       0       0       0       0       0
       0       0       0       0       0       0       0       0       0       0
       0       0       0       0       0       0       0       0       0       0
       0       0       0       0       0       0       0       0       0       0
       0       0       0       0       0       0       0       0       0       0
       0       0       0       0       0       0       0       0       0       0
       0       0       0       0       0       0       0       0       0       0
       0       0       0       0       0       0       0       0       0       0
       0       0       0       0       0       0       0       0       0       0
       0       0       0       0       0       0       0       0       0       0
       0       0       0       0       0       0       0       0       0       0
       0       0       0       0       0       0       0       0       0       0
       0       0       0       0       0       0       0       0       0       0
       0       0       0       0       0       0       0       0       0       0
       0       0       0       0       0       0       0       0       0       0
       0       0       0       0       0       0       0       0       0       0
       0       0       0       0       0       0       0       0       0       0
       0       0       0       0       0       0       0       0       0       0
       0       0       0       0       0       0       0       0       0       0
       0       0       0       0       0       0       0       0       0       0
       0       0       0       0       0       0       0       0       0       0
       0       0       0       0       0       0       0       0       0       0
       0       0       0       0       0       0       0       0       0       0
       0       0       0       0       0       0       0       0       0       0
       0       0       0       0       0       0       0       0       0       0
       0       0       0       0       0       0       0       0       0       0
       0       0       0       0       0       0       0       0       0       0
       0       0       0       0       0       0       0       0       0       0
       0       0       0       0       0       0       0       0       0       0
       0       0       0       0       0       0       0       0       0       0
       0       0       0       0       0       0       0       0       0       0
       0       0       0       0       0       0       0       0       0       0
       0       0       0       0       0       0       0       0       0       0
       0       0       0       0       0       0       0       0       0       0
       0       0       0       0       0       0       0       0       0       0
       0       0       0       0       0       0       0       0       0       0
       0       0       0       0       0       0       0       0       0       0
       0       0       0       0       0       0       0       0       0       0
       0       0       0       0       0       0       0       0       0       0
       0       0       0       0       0       0       0       0       0       0
       0       0       0       0       0       0       0       0       0       0
       0       0       0       0       0       0       0       0       0       0
       0       0       0       0       0       0       0       0       0       0
       0       0       0       0       0       0       0       0       0       0
       0       0       0       0       0       0       0       0       0       0
       0       0       0       0       0       0       0       0       0       0
       0       0       0       0       0       0       0       0       0       0
       0       0       0       0       0       0       0       0       0       0
       0       0       0       0       0       0       0       0       0       0
       0       0       0       0       0       0       0       0       0       0
       0       0       0       0       0       0       0       0       0       0
       0       0       0       0       0       0       0       0       0       0
       0       0       0       0       0       0       0       0       0       0
       0       0       0       0       0       0       0       0       0       0
       0       0       0       0       0       0       0       0       0       0
       0       0       0       0       0       0       0       0       0       0
       0       0       0       0       0       0       0       0       0       0
       0       0       0       0       0       0       0       0       0       0
       0       0       0       0       0       0       0       0       0       0
       0       0       0       0       0       0       0       0       0       0
       0       0       0       0       0       0       0       0       0       0
       0       0       0       0       0       0       0       0       0       0
       0       0       0       0       0       0       0       0       0       0
       0       0       0       0       0       0       0       0       0       0
       0       0       0       0       0       0       0       0       0       0
       0       0       0       0       0       0       0       0       0       0
       0       0       0       0       0       0       0       0       0       0
       0       0       0       0       0       0       0       0       0       0
       0       0       0       0       0       0       0       0       0       0
       0       0       0       0       0       0       0       0       0       0
       0       0       0       0       0       0       0       0       0       0
       0       0       0       0       0       0       0       0       0       0
       0       0       0       0       0       0       0       0       0       0
       0       0       0       0       0       0       0       0       0       0
       0       0       0       0       0       0       0       0       0       0
       0       0       0       0       0       0       0       0       0       0
       0       0       0       0       0       0       0       0       0       0
       0       0       0       0       0       0       0       0       0       0
       0       0       0       0       0       0       0       0       0       0
       0       0       0       0       0       0       0       0       0       0
       0       0       0       0       0       0       0       0       0       0
       0       0       0       0       0       0       0       0       0       0
       0       0       0       0       0       0       0       0       0       0
       0       0       0       0       0       0       0       0       0       0
       0       0       0       0       0       0       0       0       0       0
       0       0       0       0       0       0       0       0       0       0
       0       0       0       0       0       0       0       0       0       0
       0       0       0       0       0       0       0       0       0       0
       0       0       0       0       0       0       0       0       0       0
       0       0       0       0       0       0       0       0       0       0
       0       0       0       0       0       0       0       0       0       0
       0       0       0       0       0       0       0       0       0       0
       0       0       0       0       0       0       0       0       0       0
       0       0       0       0       0       0       0       0       0       0
       0       0       0       0       0       0       0       0       0       0
       0       0       0       0       0       0       0       0       0       0
       0       0       0       0       0       0       0       0       0       0
       0       0       0       0       0       0       0       0       0       0
       0       0       0       0       0       0       0       0       0       0
       0       0       0       0       0       0       0       0       0       0
       0       0       0       0       0       0       0       0       0       0
       0       0       0       0       0       0       0       0       0       0
       0       0       0       0       0       0       0       0       0       0
       0       0       0       0       0       0       0       0       0       0
       0       0       0       0       0       0       0       0       0       0
       0       0       0       0       0       0       0       0       0       0
       0       0       0       0       0       0       0       0       0       0
       0       0       0       0       0       0       0       0       0       0
       0       0       0       0       0       0       0       0       0       0
       0       0       0       0       0       0       0       0       0       0
       0       0       0       0       0       0       0       0       0       0
       0       0       0       0       0       0       0       0       0       0
       0       0       0       0       0       0       0       0       0       0
       0       0       0       0       0       0       0       0       0       0
       0       0       0       0       0       0       0       0       0       0
       0       0       0       0       0       0       0       0       0       0
       0       0       0       0       0       0       0       0       0       0
       0       0       0       0       0       0       0       0       0       0
       0       0       0       0       0       0       0       0       0       0
       0       0       0       0       0       0       0       0       0       0
       0       0       0       0       0       0       0       0       0       0
       0       0       0       0       0       0       0       0       0       0
       0       0       0       0       0       0       0       0       0       0
       0       0       0       0       0       0       0       0       0       0
       0       0       0       0       0       0       0       0       0       0
       0       0       0       0       0       0       0       0       0       0
       0       0       0       0       0       0       0       0       0       0
       0       0       0       0       0       0       0       0       0       0
       0       0       0       0       0       0       0       0       0       0
       0       0       0       0       0       0       0       0       0       0
       0       0       0       0       0       0       0       0       0       0
       0       0       0       0       0       0       0       0       0       0
       0       0       0       0       0       0       0       0       0       0
       0       0       0       0       0       0       0       0       0       0
       0       0       0       0       0       0       0       0       0       0
       0       0       0       0       0       0       0       0       0       0
       0       0       0       0       0       0       0       0       0       0
       0       0       0       0       0       0       0       0       0       0
       0       0       0       0       0       0       0       0       0       0
       0       0       0       0       0       0       0       0       0       0
       0       0       0       0       0       0       0       0       0       0
       0       0       0       0       0       0       0       0       0       0
       0       0       0       0       0       0       0       0       0       0
       0       0       0       0       0       0       0       0       0       0
       0       0       0       0       0       0       0       0       0       0
       0       0       0       0       0       0       0       0       0       0
       0       0       0       0       0       0       0       0       0       0
       0       0       0       0       0       0       0       0       0       0
       0       0       0       0       0       0       0       0       0       0
       0       0       0       0       0       0       0       0       0       0
       0       0       0       0       0       0       0       0       0       0
       0       0       0       0       0       0       0       0       0       0
       0       0       0       0       0       0       0       0       0       0
       0       0       0       0       0       0       0       0       0       0
       0       0       0       0       0       0       0       0       0       0
       0       0       0       0       0       0       0       0       0       0
       0       0       0       0       0       0       0       0       0       0
       0       0       0       0       0       0       0       0       0       0
       0       0       0       0       0       0       0       0       0       0
       0       0       0       0       0       0       0       0       0       0
       0       0       0       0       0       0       0       0       0       0
       0       0       0       0       0       0       0       0       0       0
       0       0       0       0       0       0       0       0       0       0
       0       0       0       0       0       0       0       0       0       0
       0       0       0       0       0       0       0       0       0       0
       0       0       0       0       0       0       0       0       0       0
       0       0       0       0       0       0       0       0       0       0
       0       0       0       0       0       0       0       0       0       0
       0       0       0       0       0       0       0       0       0       0
       0       0       0       0       0       0       0       0       0       0
       0       0       0       0       0       0       0       0       0       0
       0       0       0       0       0       0       0       0       0       0
       0       0       0       0       0       0       0       0       0       0
       0       0       0       0       0       0       0       0       0       0
       0       0       0       0       0       0       0       0       0       0
       0       0       0       0       0       0       0       0       0       0
       0       0       0       0       0       0       0       0       0       0
       0       0       0       0       0       0       0       0       0       0
       0       0       0       0       0       0       0       0       0       0
       0       0       0       0       0       0       0       0       0       0
       0       0       0       0       0       0       0       0       0       0
       0       0       0       0       0       0       0       0       0       0
       0       0       0       0       0       0       0       0       0       0
       0       0       0       0       0       0       0       0       0       0
       0       0       0       0       0       0       0       0       0       0
       0       0       0       0       0       0       0       0       0       0
       0       0       0       0       0       0       0       0       0       0
       0       0       0       0       0       0       0       0       0       0
       0       0       0       0       0       0       0       0       0       0
       0       0       0       0       0       0       0       0       0       0
       0       0       0       0       0       0       0       0       0       0
       0       0       0       0       0       0       0       0       0       0
       0       0       0       0       0       0       0       0       0       0
       0       0       0       0       0       0       0       0       0       0
       0       0       0       0       0       0       0       0       0       0
       0       0       0       0       0       0       0       0       0       0
       0       0       0       0       0       0       0       0       0       0
       0       0       0       0       0       0       0       0       0       0
       0       0       0       0       0       0       0       0       0       0
       0       0       0       0       0       0       0       0       0       0
       0       0       0       0       0       0       0       0       0       0
       0       0       0       0       0       0       0       0       0       0
       0       0       0       0       0       0       0       0       0       0
       0       0       0       0       0       0       0       0       0       0
       0       0       0       0       0       0       0       0       0       0
       0       0       0       0       0       0       0       0       0       0
       0       0       0       0       0       0       0       0       0       0
       0       0       0       0       0       0       0       0       0       0
       0       0       0       0       0       0       0       0       0       0
       0       0       0       0       0       0       0       0       0       0
       0       0       0       0       0       0       0       0       0       0
       0       0       0       0       0       0       0       0       0       0
       0       0       0       0       0       0       0       0       0       0
       0       0       0       0       0       0       0       0       0       0
       0       0       0       0       0       0       0       0       0       0
       0       0       0       0       0       0       0       0       0       0
       0       0       0       0       0       0       0       0       0       0
       0       0       0       0       0       0       0       0       0       0
       0       0       0       0       0       0       0       0       0       0
       0       0       0       0       0       0       0       0       0       0
       0       0       0       0       0       0       0       0       0       0
       0       0       0       0       0       0       0       0       0       0
       0       0       0       0       0       0       0       0       0       0
       0       0       0       0       0       0       0       0       0       0
       0       0       0       0       0       0       0       0       0       0
       0       0       0       0       0       0       0       0       0       0
       0       0       0       0       0       0       0       0       0       0
       0       0       0       0       0       0       0       0       0       0
       0       0       0       0       0       0       0       0       0       0
       0       0       0       0       0       0       0       0       0       0
       0       0       0       0       0       0       0       0       0       0
       0       0       0       0       0       0       0       0       0       0
       0       0       0       0       0       0       0       0       0       0
       0       0       0       0       0       0       0       0       0       0
       0       0       0       0       0       0       0       0       0       0
       0       0       0       0       0       0       0       0       0       0
       0       0       0       0       0       0       0       0       0       0
       0       0       0       0       0       0       0       0       0       0
       0       0       0       0       0       0       0       0       0       0
       0       0       0       0       0       0       0       0       0       0
       0       0       0       0       0       0       0       0       0       0
       0       0       0       0       0       0       0       0       0       0
       0       0       0       0       0       0       0       0       0       0
       0       0       0       0       0       0       0       0       0       0
       0       0       0       0       0       0       0       0       0       0
       0       0       0       0       0       0       0       0       0       0
       0       0       0       0       0       0       0       0       0       0
       0       0       0       0       0       0       0       0       0       0
       0       0       0       0       0       0       0       0       0       0
       0       0       0       0       0       0       0       0       0       0
       0       0       0       0       0       0       0       0       0       0
       0       0       0       0       0       0       0       0       0       0
       0       0       0       0       0       0       0       0       0       0
       0       0       0       0       0       0       0       0       0       0
       0       0       0       0       0       0       0       0       0       0
       0       0       0       0       0       0       0       0       0       0
       0       0       0       0       0       0       0       0       0       0
       0       0       0       0       0       0       0       0       0       0
       0       0       0       0       0       0       0       0       0       0
       0       0       0       0       0       0       0       0       0       0
       0       0       0       0       0       0       0       0       0       0
       0       0       0       0       0       0       0       0       0       0
       0       0       0       0       0       0       0       0       0       0
       0       0       0       0       0       0       0       0       0       0
       0       0       0       0       0       0       0       0       0       0
       0       0       0       0       0       0       0       0       0       0
       0       0       0       0       0       0       0       0       0       0
       0       0       0       0       0       0       0       0       0       0
       0       0       0       0       0       0       0       0       0       0
       0       0       0       0       0       0       0       0       0       0
       0       0       0       0       0       0       0       0       0       0
       0       0       0       0       0       0       0       0       0       0
       0       0       0       0       0       0       0       0       0       0
       0       0       0       0       0       0       0       0       0       0
       0       0       0       0       0       0       0       0       0       0
       0       0       0       0       0       0       0       0       0       0
       0       0       0       0       0       0       0       0       0       0
       0       0       0       0       0       0       0       0       0       0
       0       0       0       0       0       0       0       0       0       0
       0       0       0       0       0       0       0       0       0       0
       0       0       0       0       0       0       0       0       0       0
       0       0       0       0       0       0       0       0       0       0
       0       0       0       0       0       0       0       0       0       0
       0       0       0       0       0       0       0       0       0       0
       0       0       0       0       0       0       0       0       0       0
       0       0       0       0       0       0       0       0       0       0
       0       0       0       0       0       0       0       0       0       0
       0       0       0       0       0       0       0       0       0       0
       0       0       0       0       0       0       0       0       0       0
       0       0       0       0       0       0       0       0       0       0
       0       0       0       0       0       0       0       0       0       0
       0       0       0       0       0       0       0       0       0       0
       0       0       0       0       0       0       0       0       0       0
       0       0       0       0       0       0       0       0       0       0
       0       0       0       0       0       0       0       0       0       0
       0       0       0       0       0       0       0       0       0       0
       0       0       0       0       0       0       0       0       0       0
       0       0       0       0       0       0       0       0       0       0
       0       0       0       0       0       0       0       0       0       0
       0       0       0       0       0       0       0       0       0       0
       0       0       0       0       0       0       0       0       0       0
       0       0       0       0       0       0       0       0       0       0
       0       0       0       0       0       0       0       0       0       0
       0       0       0       0       0       0       0       0       0       0
       0       0       0       0       0       0       0       0       0       0
       0       0       0       0       0       0       0       0       0       0
       0       0       0       0       0       0       0       0       0       0
       0       0       0       0       0       0       0       0       0       0
       0       0       0       0       0       0       0       0       0       0
       0       0       0       0       0       0       0       0       0       0
       0       0       0       0       0       0       0       0       0       0
       0       0       0       0       0       0       0       0       0       0
       0       0       0       0       0       0       0       0       0       0
       0       0       0       0       0       0       0       0       0       0
       0       0       0       0       0       0       0       0       0       0
       0       0       0       0       0       0       0       0       0       0
       0       0       0       0       0       0       0       0       0       0
       0       0       0       0       0       0       0       0       0       0
       0       0       0       0       0       0       0       0       0       0
       0       0       0       0       0       0       0       0       0       0
       0       0       0       0       0       0       0       0       0       0
       0       0       0       0       0       0       0       0       0       0
       0       0       0       0       0       0       0       0       0       0
       0       0       0       0       0       0       0       0       0       0
       0       0       0       0       0       0       0       0       0       0
       0       0       0       0       0       0       0       0       0       0
       0       0       0       0       0       0       0       0       0       0
       0       0       0       0       0       0       0       0       0       0
       0       0       0       0       0       0       0       0       0       0
       0       0       0       0       0       0       0       0       0       0
       0       0       0       0       0       0       0       0       0       0
       0       0       0       0       0       0       0       0       0       0
       0       0       0       0       0       0       0       0       0       0
       0       0       0       0       0       0       0       0       0       0
       0       0       0       0       0       0       0       0       0       0
       0       0       0       0       0       0       0       0       0       0
       0       0       0       0       0       0       0       0       0       0
       0       0       0       0       0       0       0       0       0       0
       0       0       0       0       0       0       0       0       0       0
       0       0       0       0       0       0       0       0       0       0
       0       0       0       0       0       0       0       0       0       0
       0       0       0       0       0       0       0       0       0       0
       0       0       0       0       0       0       0       0       0       0
       0       0       0       0       0       0       0       0       0       0
       0       0       0       0       0       0       0       0       0       0
       0       0       0       0       0       0       0       0       0       0
       0       0       0       0       0       0       0       0       0       0
       0       0       0       0       0       0       0       0       0       0
       0       0       0       0       0       0       0       0       0       0
       0       0       0       0       0       0       0       0       0       0
       0       0       0       0       0       0       0       0       0       0
       0       0       0       0       0       0       0       0       0       0
       0       0       0       0       0       0       0       0       0       0
       0       0       0       0       0       0       0       0       0       0
       0       0       0       0       0       0       0       0       0       0
       0       0       0       0       0       0       0       0       0       0
       0       0       0       0       0       0       0       0       0       0
       0       0       0       0       0       0       0       0       0       0
       0       0       0       0       0       0       0       0       0       0
       0       0       0       0       0       0       0       0       0       0
       0       0       0       0       0       0       0       0       0       0
       0       0       0       0       0       0       0       0       0       0
       0       0       0       0       0       0       0       0       0       0
       0       0       0       0       0       0       0       0       0       0
       0       0       0       0       0       0       0       0       0       0
       0       0       0       0       0       0       0       0       0       0
       0       0       0       0       0       0       0       0       0       0
       0       0       0       0       0       0       0       0       0       0
       0       0       0       0       0       0       0       0       0       0
       0       0       0       0       0       0       0       0       0       0
       0       0       0       0       0       0       0       0       0       0
       0       0       0       0       0       0       0       0       0       0
       0       0       0       0       0       0       0       0       0       0
       0       0       0       0       0       0       0       0       0       0
       0       0       0       0       0       0       0       0       0       0
       0       0       0       0       0       0       0       0       0       0
       0       0       0       0       0       0       0       0       0       0
       0       0       0       0       0       0       0       0       0       0
       0       0       0       0       0       0       0       0       0       0
       0       0       0       0       0       0       0       0       0       0
       0       0       0       0       0       0       0       0       0       0
       0       0       0       0       0       0       0       0       0       0
       0       0       0       0       0       0       0       0       0       0
       0       0       0       0       0       0       0       0       0       0
       0       0       0       0       0       0       0       0       0       0
       0       0       0       0       0       0       0       0       0       0
       0       0       0       0       0       0       0       0       0       0
       0       0       0       0       0       0       0       0       0       0
       0       0       0       0       0       0       0       0       0       0
       0       0       0       0       0       0       0       0       0       0
       0       0       0       0       0       0       0       0       0       0
       0       0       0       0       0       0       0       0       0       0
       0       0       0       0       0       0       0       0       0       0
       0       0       0       0       0       0       0       0       0       0
       0       0       0       0       0       0       0       0       0       0
       0       0       0       0       0       0       0       0       0       0
       0       0       0       0       0       0       0       0       0       0
       0       0       0       0       0       0       0       0       0       0
       0       0       0       0       0       0       0       0       0       0
       0       0       0       0       0       0       0       0       0       0
       0       0       0       0       0       0       0       0       0       0
       0       0       0       0       0       0       0       0       0       0
       0       0       0       0       0       0       0       0       0       0
       0       0       0       0       0       0       0       0       0       0
       0       0       0       0       0       0       0       0       0       0
       0       0       0       0       0       0       0       0       0       0
       0       0       0       0       0       0       0       0       0       0
       0       0       0       0       0       0       0       0       0       0
       0       0       0       0       0       0       0       0       0       0
       0       0       0       0       0       0       0       0       0       0
       0       0       0       0       0       0       0       0       0       0
       0       0       0       0       0       0       0       0       0       0
       0       0       0       0       0       0       0       0       0       0
       0       0       0       0       0       0       0       0       0       0
       0       0       0       0       0       0       0       0       0       0
       0       0       0       0       0       0       0       0       0       0
       0       0       0       0       0       0       0       0       0       0
       0       0       0       0       0       0       0       0       0       0
       0       0       0       0       0       0       0       0       0       0
       0       0       0       0       0       0       0       0       0       0
       0       0       0       0       0       0       0       0       0       0
       0       0       0       0       0       0       0       0       0       0
       0       0       0       0       0       0       0       0       0       0
       0       0       0       0       0       0       0       0       0       0
       0       0       0       0       0       0       0       0       0       0
       0       0       0       0       0       0       0       0       0       0
       0       0       0       0       0       0       0       0       0       0
       0       0       0       0       0       0       0       0       0       0
       0       0       0       0       0       0       0       0       0       0
       0       0       0       0       0       0       0       0       0       0
       0       0       0       0       0       0       0       0       0       0
       0       0       0       0       0       0       0       0       0       0
       0       0       0       0       0       0       0       0       0       0
       0       0       0       0       0       0       0       0       0       0
       0       0       0       0       0       0       0       0       0       0
       0       0       0       0       0       0       0       0       0       0
       0       0       0       0       0       0       0       0       0       0
       0       0       0       0       0       0       0       0       0       0
       0       0       0       0       0       0       0       0       0       0
       0       0       0       0       0       0       0       0       0       0
       0       0       0       0       0       0       0       0       0       0
       0       0       0       0       0       0       0       0       0       0
       0       0       0       0       0       0       0       0       0       0
       0       0       0       0       0       0       0       0       0       0
       0       0       0       0       0       0       0       0       0       0
       0       0       0       0       0       0       0       0       0       0
       0       0       0       0       0       0       0       0       0       0
       0       0       0       0       0       0       0       0       0       0
       0       0       0       0       0       0       0       0       0       0
       0       0       0       0       0       0       0       0       0       0
       0       0       0       0       0       0       0       0       0       0
       0       0       0       0       0       0       0       0       0       0
       0       0       0       0       0       0       0       0       0       0
       0       0       0       0       0       0       0       0       0       0
       0       0       0       0       0       0       0       0       0       0
       0       0       0       0       0       0       0       0       0       0
       0       0       0       0       0       0       0       0       0       0
       0       0       0       0       0       0       0       0       0       0
       0       0       0       0       0       0       0       0       0       0
       0       0       0       0       0       0       0       0       0       0
       0       0       0       0       0       0       0       0       0       0
       0       0       0       0       0       0       0       0       0       0
       0       0       0       0       0       0       0       0       0       0
       0       0       0       0       0       0       0       0       0       0
       0       0       0       0       0       0       0       0       0       0
       0       0       0       0       0       0       0       0       0       0
       0       0       0       0       0       0       0       0       0       0
       0       0       0       0       0       0       0       0       0       0
       0       0       0       0       0       0       0       0       0       0
       0       0       0       0       0       0       0       0       0       0
       0       0       0       0       0       0       0       0       0       0
       0       0       0       0       0       0       0       0       0       0
       0       0       0       0       0       0       0       0       0       0
       0       0       0       0       0       0       0       0       0       0
       0       0       0       0       0       0       0       0       0       0
       0       0       0       0       0       0       0       0       0       0
       0       0       0       0       0       0       0       0       0       0
       0       0       0       0       0       0       0       0       0       0
       0       0       0       0       0       0       0       0       0       0
       0       0       0       0       0       0       0       0       0       0
       0       0       0       0       0       0       0       0       0       0
       0       0       0       0       0       0       0       0       0       0
       0       0       0       0       0       0       0       0       0       0
       0       0       0       0       0       0       0       0       0       0
       0       0       0       0       0       0       0       0       0       0
       0       0       0       0       0       0       0       0       0       0
       0       0       0       0       0       0       0       0       0       0
       0       0       0       0       0       0       0       0       0       0
       0       0       0       0       0       0       0       0       0       0
       0       0       0       0       0       0       0       0       0       0
       0       0       0       0       0       0       0       0       0       0
       0       0       0       0       0       0       0       0       0       0
       0       0       0       0       0       0       0       0       0       0
       0       0       0       0       0       0       0       0       0       0
       0       0       0       0       0       0       0       0       0       0
       0       0       0       0       0       0       0       0       0       0
       0       0       0       0       0       0       0       0       0       0
       0       0       0       0       0       0       0       0       0       0
       0       0       0       0       0       0       0       0       0       0
       0       0       0       0       0       0       0       0       0       0
       0       0       0       0       0       0       0       0       0       0
       0       0       0       0       0       0       0       0       0       0
       0       0       0       0       0       0       0       0       0       0
       0       0       0       0       0       0       0       0       0       0
       0       0       0       0       0       0       0       0       0       0
       0       0       0       0       0       0       0       0       0       0
       0       0       0       0       0       0       0       0       0       0
       0       0       0       0       0       0       0       0       0       0
       0       0       0       0       0       0       0       0       0       0
       0       0       0       0       0       0       0       0       0       0
       0       0       0       0       0       0       0       0       0       0
       0       0       0       0       0       0       0       0       0       0
       0       0       0       0       0       0       0       0       0       0
       0       0       0       0       0       0       0       0       0       0
       0       0       0       0       0       0       0       0       0       0
       0       0       0       0       0       0       0       0       0       0
       0       0       0       0       0       0       0       0       0       0
       0       0       0       0       0       0       0       0       0       0
       0       0       0       0       0       0       0       0       0       0
       0       0       0       0       0       0       0       0       0       0
       0       0       0       0       0       0       0       0       0       0
       0       0       0       0       0       0       0       0       0       0
       0       0       0       0       0       0       0       0       0       0
       0       0       0       0       0       0       0       0       0       0
       0       0       0       0       0       0       0       0       0       0
       0       0       0       0       0       0       0       0       0       0
       0       0       0       0       0       0       0       0       0       0
       0       0       0       0       0       0       0       0       0       0
       0       0       0       0       0       0       0       0       0       0
       0       0       0       0       0       0       0       0       0       0
       0       0       0       0       0       0       0       0       0       0
       0       0       0       0       0       0       0       0       0       0
       0       0       0       0       0       0       0       0       0       0
       0       0       0       0       0       0       0       0       0       0
       0       0       0       0       0       0       0       0       0       0
       0       0       0       0       0       0       0       0       0       0
       0       0       0       0       0       0       0       0       0       0
       0       0       0       0       0       0       0       0       0       0
       0       0       0       0       0       0       0       0       0       0
%FLAG IROTAT                                                                    
%FORMAT(10I8)                                                                   
       0       0       0       0       0       0       0       0       0       0
       0       0       0       0       0       0       0       0       0       0
       0       0       0       0       0       0       0       0       0       0
       0       0       0       0       0       0       0       0       0       0
       0       0       0       0       0       0       0       0       0       0
       0       0       0       0       0       0       0       0       0       0
       0       0       0       0       0       0       0       0       0       0
       0       0       0       0       0       0       0       0       0       0
       0       0       0       0       0       0       0       0       0       0
       0       0       0       0       0       0       0       0       0       0
       0       0       0       0       0       0       0       0       0       0
       0       0       0       0       0       0       0       0       0       0
       0       0       0       0       0       0       0       0       0       0
       0       0       0       0       0       0       0       0       0       0
       0       0       0       0       0       0       0       0       0       0
       0       0       0       0       0       0       0       0       0       0
       0       0       0       0       0       0       0       0       0       0
       0       0       0       0       0       0       0       0       0       0
       0       0       0       0       0       0       0       0       0       0
       0       0       0       0       0       0       0       0       0       0
       0       0       0       0       0       0       0       0       0       0
       0       0       0       0       0       0       0       0       0       0
       0       0       0       0       0       0       0       0       0       0
       0       0       0       0       0       0       0       0       0       0
       0       0       0       0       0       0       0       0       0       0
       0       0       0       0       0       0       0       0       0       0
       0       0       0       0       0       0       0       0       0       0
       0       0       0       0       0       0       0       0       0       0
       0       0       0       0       0       0       0       0       0       0
       0       0       0       0       0       0       0       0       0       0
       0       0       0       0       0       0       0       0       0       0
       0       0       0       0       0       0       0       0       0       0
       0       0       0       0       0       0       0       0       0       0
       0       0       0       0       0       0       0       0       0       0
       0       0       0       0       0       0       0       0       0       0
       0       0       0       0       0       0       0       0       0       0
       0       0       0       0       0       0       0       0       0       0
       0       0       0       0       0       0       0       0       0       0
       0       0       0       0       0       0       0       0       0       0
       0       0       0       0       0       0       0       0       0       0
       0       0       0       0       0       0       0       0       0       0
       0       0       0       0       0       0       0       0       0       0
       0       0       0       0       0       0       0       0       0       0
       0       0       0       0       0       0       0       0       0       0
       0       0       0       0       0       0       0       0       0       0
       0       0       0       0       0       0       0       0       0       0
       0       0       0       0       0       0       0       0       0       0
       0       0       0       0       0       0       0       0       0       0
       0       0       0       0       0       0       0       0       0       0
       0       0       0       0       0       0       0       0       0       0
       0       0       0       0       0       0       0       0       0       0
       0       0       0       0       0       0       0       0       0       0
       0       0       0       0       0       0       0       0       0       0
       0       0       0       0       0       0       0       0       0       0
       0       0       0       0       0       0       0       0       0       0
       0       0       0       0       0       0       0       0       0       0
       0       0       0       0       0       0       0       0       0       0
       0       0       0       0       0       0       0       0       0       0
       0       0       0       0       0       0       0       0       0       0
       0       0       0       0       0       0       0       0       0       0
       0       0       0       0       0       0       0       0       0       0
       0       0       0       0       0       0       0       0       0       0
       0       0       0       0       0       0       0       0       0       0
       0       0       0       0       0       0       0       0       0       0
       0       0       0       0       0       0       0       0       0       0
       0       0       0       0       0       0       0       0       0       0
       0       0       0       0       0       0       0       0       0       0
       0       0       0       0       0       0       0       0       0       0
       0       0       0       0       0       0       0       0       0       0
       0       0       0       0       0       0       0       0       0       0
       0       0       0       0       0       0       0       0       0       0
       0       0       0       0       0       0       0       0       0       0
       0       0       0       0       0       0       0       0       0       0
       0       0       0       0       0       0       0       0       0       0
       0       0       0       0       0       0       0       0       0       0
       0       0       0       0       0       0       0       0       0       0
       0       0       0       0       0       0       0       0       0       0
       0       0       0       0       0       0       0       0       0       0
       0       0       0       0       0       0       0       0       0       0
       0       0       0       0       0       0       0       0       0       0
       0       0       0       0       0       0       0       0       0       0
       0       0       0       0       0       0       0       0       0       0
       0       0       0       0       0       0       0       0       0       0
       0       0       0       0       0       0       0       0       0       0
       0       0       0       0       0       0       0       0       0       0
       0       0       0       0       0       0       0       0       0       0
       0       0       0       0       0       0       0       0       0       0
       0       0       0       0       0       0       0       0       0       0
       0       0       0       0       0       0       0       0       0       0
       0       0       0       0       0       0       0       0       0       0
       0       0       0       0       0       0       0       0       0       0
       0       0       0       0       0       0       0       0       0       0
       0       0       0       0       0       0       0       0       0       0
       0       0       0       0       0       0       0       0       0       0
       0       0       0       0       0       0       0       0       0       0
       0       0       0       0       0       0       0       0       0       0
       0       0       0       0       0       0       0       0       0       0
       0       0       0       0       0       0       0       0       0       0
       0       0       0       0       0       0       0       0       0       0
       0       0       0       0       0       0       0       0       0       0
       0       0       0       0       0       0       0       0       0       0
       0       0       0       0       0       0       0       0       0       0
       0       0       0       0       0       0       0       0       0       0
       0       0       0       0       0       0       0       0       0       0
       0       0       0       0       0       0       0       0       0       0
       0       0       0       0       0       0       0       0       0       0
       0       0       0       0       0       0       0       0       0       0
       0       0       0       0       0       0       0       0       0       0
       0       0       0       0       0       0       0       0       0       0
       0       0       0       0       0       0       0       0       0       0
       0       0       0       0       0       0       0       0       0       0
       0       0       0       0       0       0       0       0       0       0
       0       0       0       0       0       0       0       0       0       0
       0       0       0       0       0       0       0       0       0       0
       0       0       0       0       0       0       0       0       0       0
       0       0       0       0       0       0       0       0       0       0
       0       0       0       0       0       0       0       0       0       0
       0       0       0       0       0       0       0       0       0       0
       0       0       0       0       0       0       0       0       0       0
       0       0       0       0       0       0       0       0       0       0
       0       0       0       0       0       0       0       0       0       0
       0       0       0       0       0       0       0       0       0       0
       0       0       0       0       0       0       0       0       0       0
       0       0       0       0       0       0       0       0       0       0
       0       0       0       0       0       0       0       0       0       0
       0       0       0       0       0       0       0       0       0       0
       0       0       0       0       0       0       0       0       0       0
       0       0       0       0       0       0       0       0       0       0
       0       0       0       0       0       0       0       0       0       0
       0       0       0       0       0       0       0       0       0       0
       0       0       0       0       0       0       0       0       0       0
       0       0       0       0       0       0       0       0       0       0
       0       0       0       0       0       0       0       0       0       0
       0       0       0       0       0       0       0       0       0       0
       0       0       0       0       0       0       0       0       0       0
       0       0       0       0       0       0       0       0       0       0
       0       0       0       0       0       0       0       0       0       0
       0       0       0       0       0       0       0       0       0       0
       0       0       0       0       0       0       0       0       0       0
       0       0       0       0       0       0       0       0       0       0
       0       0       0       0       0       0       0       0       0       0
       0       0       0       0       0       0       0       0       0       0
       0       0       0       0       0       0       0       0       0       0
       0       0       0       0       0       0       0       0       0       0
       0       0       0       0       0       0       0       0       0       0
       0       0       0       0       0       0       0       0       0       0
       0       0       0       0       0       0       0       0       0       0
       0       0       0       0       0       0       0       0       0       0
       0       0       0       0       0       0       0       0       0       0
       0       0       0       0       0       0       0       0       0       0
       0       0       0       0       0       0       0       0       0       0
       0       0       0       0       0       0       0       0       0       0
       0       0       0       0       0       0       0       0       0       0
       0       0       0       0       0       0       0       0       0       0
       0       0       0       0       0       0       0       0       0       0
       0       0       0       0       0       0       0       0       0       0
       0       0       0       0       0       0       0       0       0       0
       0       0       0       0       0       0       0       0       0       0
       0       0       0       0       0       0       0       0       0       0
       0       0       0       0       0       0       0       0       0       0
       0       0       0       0       0       0       0       0       0       0
       0       0       0       0       0       0       0       0       0       0
       0       0       0       0       0       0       0       0       0       0
       0       0       0       0       0       0       0       0       0       0
       0       0       0       0       0       0       0       0       0       0
       0       0       0       0       0       0       0       0       0       0
       0       0       0       0       0       0       0       0       0       0
       0       0       0       0       0       0       0       0       0       0
       0       0       0       0       0       0       0       0       0       0
       0       0       0       0       0       0       0       0       0       0
       0       0       0       0       0       0       0       0       0       0
       0       0       0       0       0       0       0       0       0       0
       0       0       0       0       0       0       0       0       0       0
       0       0       0       0       0       0       0       0       0       0
       0       0       0       0       0       0       0       0       0       0
       0       0       0       0       0       0       0       0       0       0
       0       0       0       0       0       0       0       0       0       0
       0       0       0       0       0       0       0       0       0       0
       0       0       0       0       0       0       0       0       0       0
       0       0       0       0       0       0       0       0       0       0
       0       0       0       0       0       0       0       0       0       0
       0       0       0       0       0       0       0       0       0       0
       0       0       0       0       0       0       0       0       0       0
       0       0       0       0       0       0       0       0       0       0
       0       0       0       0       0       0       0       0       0       0
       0       0       0       0       0       0       0       0       0       0
       0       0       0       0       0       0       0       0       0       0
       0       0       0       0       0       0       0       0       0       0
       0       0       0       0       0       0       0       0       0       0
       0       0       0       0       0       0       0       0       0       0
       0       0       0       0       0       0       0       0       0       0
       0       0       0       0       0       0       0       0       0       0
       0       0       0       0       0       0       0       0       0       0
       0       0       0       0       0       0       0       0       0       0
       0       0       0       0       0       0       0       0       0       0
       0       0       0       0       0       0       0       0       0       0
       0       0       0       0       0       0       0       0       0       0
       0       0       0       0       0       0       0       0       0       0
       0       0       0       0       0       0       0       0       0       0
       0       0       0       0       0       0       0       0       0       0
       0       0       0       0       0       0       0       0       0       0
       0       0       0       0       0       0       0       0       0       0
       0       0       0       0       0       0       0       0       0       0
       0       0       0       0       0       0       0       0       0       0
       0       0       0       0       0       0       0       0       0       0
       0       0       0       0       0       0       0       0       0       0
       0       0       0       0       0       0       0       0       0       0
       0       0       0       0       0       0       0       0       0       0
       0       0       0       0       0       0       0       0       0       0
       0       0       0       0       0       0       0       0       0       0
       0       0       0       0       0       0       0       0       0       0
       0       0       0       0       0       0       0       0       0       0
       0       0       0       0       0       0       0       0       0       0
       0       0       0       0       0       0       0       0       0       0
       0       0       0       0       0       0       0       0       0       0
       0       0       0       0       0       0       0       0       0       0
       0       0       0       0       0       0       0       0       0       0
       0       0       0       0       0       0       0       0       0       0
       0       0       0       0       0       0       0       0       0       0
       0       0       0       0       0       0       0       0       0       0
       0       0       0       0       0       0       0       0       0       0
       0       0       0       0       0       0       0       0       0       0
       0       0       0       0       0       0       0       0       0       0
       0       0       0       0       0       0       0       0       0       0
       0       0       0       0       0       0       0       0       0       0
       0       0       0       0       0       0       0       0       0       0
       0       0       0       0       0       0       0       0       0       0
       0       0       0       0       0       0       0       0       0       0
       0       0       0       0       0       0       0       0       0       0
       0       0       0       0       0       0       0       0       0       0
       0       0       0       0       0       0       0       0       0       0
       0       0       0       0       0       0       0       0       0       0
       0       0       0       0       0       0       0       0       0       0
       0       0       0       0       0       0       0       0       0       0
       0       0       0       0       0       0       0       0       0       0
       0       0       0       0       0       0       0       0       0       0
       0       0       0       0       0       0       0       0       0       0
       0       0       0       0       0       0       0       0       0       0
       0       0       0       0       0       0       0       0       0       0
       0       0       0       0       0       0       0       0       0       0
       0       0       0       0       0       0       0       0       0       0
       0       0       0       0       0       0       0       0       0       0
       0       0       0       0       0       0       0       0       0       0
       0       0       0       0       0       0       0       0       0       0
       0       0       0       0       0       0       0       0       0       0
       0       0       0       0       0       0       0       0       0       0
       0       0       0       0       0       0       0       0       0       0
       0       0       0       0       0       0       0       0       0       0
       0       0       0       0       0       0       0       0       0       0
       0       0       0       0       0       0       0       0       0       0
       0       0       0       0       0       0       0       0       0       0
       0       0       0       0       0       0       0       0       0       0
       0       0       0       0       0       0       0       0       0       0
       0       0       0       0       0       0       0       0       0       0
       0       0       0       0       0       0       0       0       0       0
       0       0       0       0       0       0       0       0       0       0
       0       0       0       0       0       0       0       0       0       0
       0       0       0       0       0       0       0       0       0       0
       0       0       0       0       0       0       0       0       0       0
       0       0       0       0       0       0       0       0       0       0
       0       0       0       0       0       0       0       0       0       0
       0       0       0       0       0       0       0       0       0       0
       0       0       0       0       0       0       0       0       0       0
       0       0       0       0       0       0       0       0       0       0
       0       0       0       0       0       0       0       0       0       0
       0       0       0       0       0       0       0       0       0       0
       0       0       0       0       0       0       0       0       0       0
       0       0       0       0       0       0       0       0       0       0
       0       0       0       0       0       0       0       0       0       0
       0       0       0       0       0       0       0       0       0       0
       0       0       0       0       0       0       0       0       0       0
       0       0       0       0       0       0       0       0       0       0
       0       0       0       0       0       0       0       0       0       0
       0       0       0       0       0       0       0       0       0       0
       0       0       0       0       0       0       0       0       0       0
       0       0       0       0       0       0       0       0       0       0
       0       0       0       0       0       0       0       0       0       0
       0       0       0       0       0       0       0       0       0       0
       0       0       0       0       0       0       0       0       0       0
       0       0       0       0       0       0       0       0       0       0
       0       0       0       0       0       0       0       0       0       0
       0       0       0       0       0       0       0       0       0       0
       0       0       0       0       0       0       0       0       0       0
       0       0       0       0       0       0       0       0       0       0
       0       0       0       0       0       0       0       0       0       0
       0       0       0       0       0       0       0       0       0       0
       0       0       0       0       0       0       0       0       0       0
       0       0       0       0       0       0       0       0       0       0
       0       0       0       0       0       0       0       0       0       0
       0       0       0       0       0       0       0       0       0       0
       0       0       0       0       0       0       0       0       0       0
       0       0       0       0       0       0       0       0       0       0
       0       0       0       0       0       0       0       0       0       0
       0       0       0       0       0       0       0       0       0       0
       0       0       0       0       0       0       0       0       0       0
       0       0       0       0       0       0       0       0       0       0
       0       0       0       0       0       0       0       0       0       0
       0       0       0       0       0       0       0       0       0       0
       0       0       0       0       0       0       0       0       0       0
       0       0       0       0       0       0       0       0       0       0
       0       0       0       0       0       0       0       0       0       0
       0       0       0       0       0       0       0       0       0       0
       0       0       0       0       0       0       0       0       0       0
       0       0       0       0       0       0       0       0       0       0
       0       0       0       0       0       0       0       0       0       0
       0       0       0       0       0       0       0       0       0       0
       0       0       0       0       0       0       0       0       0       0
       0       0       0       0       0       0       0       0       0       0
       0       0       0       0       0       0       0       0       0       0
       0       0       0       0       0       0       0       0       0       0
       0       0       0       0       0       0       0       0       0       0
       0       0       0       0       0       0       0       0       0       0
       0       0       0       0       0       0       0       0       0       0
       0       0       0       0       0       0       0       0       0       0
       0       0       0       0       0       0       0       0       0       0
       0       0       0       0       0       0       0       0       0       0
       0       0       0       0       0       0       0       0       0       0
       0       0       0       0       0       0       0       0       0       0
       0       0       0       0       0       0       0       0       0       0
       0       0       0       0       0       0       0       0       0       0
       0       0       0       0       0       0       0       0       0       0
       0       0       0       0       0       0       0       0       0       0
       0       0       0       0       0       0       0       0       0       0
       0       0       0       0       0       0       0       0       0       0
       0       0       0       0       0       0       0       0       0       0
       0       0       0       0       0       0       0       0       0       0
       0       0       0       0       0       0       0       0       0       0
       0       0       0       0       0       0       0       0       0       0
       0       0       0       0       0       0       0       0       0       0
       0       0       0       0       0       0       0       0       0       0
       0       0       0       0       0       0       0       0       0       0
       0       0       0       0       0       0       0       0       0       0
       0       0       0       0       0       0       0       0       0       0
       0       0       0       0       0       0       0       0       0       0
       0       0       0       0       0       0       0       0       0       0
       0       0       0       0       0       0       0       0       0       0
       0       0       0       0       0       0       0       0       0       0
       0       0       0       0       0       0       0       0       0       0
       0       0       0       0       0       0       0       0       0       0
       0       0       0       0       0       0       0       0       0       0
       0       0       0       0       0       0       0       0       0       0
       0       0       0       0       0       0       0       0       0       0
       0       0       0       0       0       0       0       0       0       0
       0       0       0       0       0       0       0       0       0       0
       0       0       0       0       0       0       0       0       0       0
       0       0       0       0       0       0       0       0       0       0
       0       0       0       0       0       0       0       0       0       0
       0       0       0       0       0       0       0       0       0       0
       0       0       0       0       0       0       0       0       0       0
       0       0       0       0       0       0       0       0       0       0
       0       0       0       0       0       0       0       0       0       0
       0       0       0       0       0       0       0       0       0       0
       0       0       0       0       0       0       0       0       0       0
       0       0       0       0       0       0       0       0       0       0
       0       0       0       0       0       0       0       0       0       0
       0       0       0       0       0       0       0       0       0       0
       0       0       0       0       0       0       0       0       0       0
       0       0       0       0       0       0       0       0       0       0
       0       0       0       0       0       0       0       0       0       0
       0       0       0       0       0       0       0       0       0       0
       0       0       0       0       0       0       0       0       0       0
       0       0       0       0       0       0       0       0       0       0
       0       0       0       0       0       0       0       0       0       0
       0       0       0       0       0       0       0       0       0       0
       0       0       0       0       0       0       0       0       0       0
       0       0       0       0       0       0       0       0       0       0
       0       0       0       0       0       0       0       0       0       0
       0       0       0       0       0       0       0       0       0       0
       0       0       0       0       0       0       0       0       0       0
       0       0       0       0       0       0       0       0       0       0
       0       0       0       0       0       0       0       0       0       0
       0       0       0       0       0       0       0       0       0       0
       0       0       0       0       0       0       0       0       0       0
       0       0       0       0       0       0       0       0       0       0
       0       0       0       0       0       0       0       0       0       0
       0       0       0       0       0       0       0       0       0       0
       0       0       0       0       0       0       0       0       0       0
       0       0       0       0       0       0       0       0       0       0
       0       0       0       0       0       0       0       0       0       0
       0       0       0       0       0       0       0       0       0       0
       0       0       0       0       0       0       0       0       0       0
       0       0       0       0       0       0       0       0       0       0
       0       0       0       0       0       0       0       0       0       0
       0       0       0       0       0       0       0       0       0       0
       0       0       0       0       0       0       0       0       0       0
       0       0       0       0       0       0       0       0       0       0
       0       0       0       0       0       0       0       0       0       0
       0       0       0       0       0       0       0       0       0       0
       0       0       0       0       0       0       0       0       0       0
       0       0       0       0       0       0       0       0       0       0
       0       0       0       0       0       0       0       0       0       0
       0       0       0       0       0       0       0       0       0       0
       0       0       0       0       0       0       0       0       0       0
       0       0       0       0       0       0       0       0       0       0
       0       0       0       0       0       0       0       0       0       0
       0       0       0       0       0       0       0       0       0       0
       0       0       0       0       0       0       0       0       0       0
       0       0       0       0       0       0       0       0       0       0
       0       0       0       0       0       0       0       0       0       0
       0       0       0       0       0       0       0       0       0       0
       0       0       0       0       0       0       0       0       0       0
       0       0       0       0       0       0       0       0       0       0
       0       0       0       0       0       0       0       0       0       0
       0       0       0       0       0       0       0       0       0       0
       0       0       0       0       0       0       0       0       0       0
       0       0       0       0       0       0       0       0       0       0
       0       0       0       0       0       0       0       0       0       0
       0       0       0       0       0       0       0       0       0       0
       0       0       0       0       0       0       0       0       0       0
       0       0       0       0       0       0       0       0       0       0
       0       0       0       0       0       0       0       0       0       0
       0       0       0       0       0       0       0       0       0       0
       0       0       0       0       0       0       0       0       0       0
       0       0       0       0       0       0       0       0       0       0
       0       0       0       0       0       0       0       0       0       0
       0       0       0       0       0       0       0       0       0       0
       0       0       0       0       0       0       0       0       0       0
       0       0       0       0       0       0       0       0       0       0
       0       0       0       0       0       0       0       0       0       0
       0       0       0       0       0       0       0       0       0       0
       0       0       0       0       0       0       0       0       0       0
       0       0       0       0       0       0       0       0       0       0
       0       0       0       0       0       0       0       0       0       0
       0       0       0       0       0       0       0       0       0       0
       0       0       0       0       0       0       0       0       0       0
       0       0       0       0       0       0       0       0       0       0
       0       0       0       0       0       0       0       0       0       0
       0       0       0       0       0       0       0       0       0       0
       0       0       0       0       0       0       0       0       0       0
       0       0       0       0       0       0       0       0       0       0
       0       0       0       0       0       0       0       0       0       0
       0       0       0       0       0       0       0       0       0       0
       0       0       0       0       0       0       0       0       0       0
       0       0       0       0       0       0       0       0       0       0
       0       0       0       0       0       0       0       0       0       0
       0       0       0       0       0       0       0       0       0       0
       0       0       0       0       0       0       0       0       0       0
       0       0       0       0       0       0       0       0       0       0
       0       0       0       0       0       0       0       0       0       0
       0       0       0       0       0       0       0       0       0       0
       0       0       0       0       0       0       0       0       0       0
       0       0       0       0       0       0       0       0       0       0
       0       0       0       0       0       0       0       0       0       0
       0       0       0       0       0       0       0       0       0       0
       0       0       0       0       0       0       0       0       0       0
       0       0       0       0       0       0       0       0       0       0
       0       0       0       0       0       0       0       0       0       0
       0       0       0       0       0       0       0       0       0       0
       0       0       0       0       0       0       0       0       0       0
       0       0       0       0       0       0       0       0       0       0
       0       0       0       0       0       0       0       0       0       0
       0       0       0       0       0       0       0       0       0       0
       0       0       0       0       0       0       0       0       0       0
       0       0       0       0       0       0       0       0       0       0
       0       0       0       0       0       0       0       0       0       0
       0       0       0       0       0       0       0       0       0       0
       0       0       0       0       0       0       0       0       0       0
       0       0       0       0       0       0       0       0       0       0
       0       0       0       0       0       0       0       0       0       0
       0       0       0       0       0       0       0       0       0       0
       0       0       0       0       0       0       0       0       0       0
       0       0       0       0       0       0       0       0       0       0
       0       0       0       0       0       0       0       0       0       0
       0       0       0       0       0       0       0       0       0       0
       0       0       0       0       0       0       0       0       0       0
       0       0       0       0       0       0       0       0       0       0
       0       0       0       0       0       0       0       0       0       0
       0       0       0       0       0       0       0       0       0       0
       0       0       0       0       0       0       0       0       0       0
       0       0       0       0       0       0       0       0       0       0
       0       0       0       0       0       0       0       0       0       0
       0       0       0       0       0       0       0       0       0       0
       0       0       0       0       0       0       0       0       0       0
       0       0       0       0       0       0       0       0       0       0
       0       0       0       0       0       0       0       0       0       0
       0       0       0       0       0       0       0       0       0       0
       0       0       0       0       0       0       0       0       0       0
       0       0       0       0       0       0       0       0       0       0
       0       0       0       0       0       0       0       0       0       0
       0       0       0       0       0       0       0       0       0       0
       0       0       0       0       0       0       0       0       0       0
       0       0       0       0       0       0       0       0       0       0
       0       0       0       0       0       0       0       0       0       0
       0       0       0       0       0       0       0       0       0       0
       0       0       0       0       0       0       0       0       0       0
       0       0       0       0       0       0       0       0       0       0
       0       0       0       0       0       0       0       0       0       0
       0       0       0       0       0       0       0       0       0       0
       0       0       0       0       0       0       0       0       0       0
       0       0       0       0       0       0       0       0       0       0
       0       0       0       0       0       0       0       0       0       0
       0       0       0       0       0       0       0       0       0       0
       0       0       0       0       0       0       0       0       0       0
       0       0       0       0       0       0       0       0       0       0
       0       0       0       0       0       0       0       0       0       0
       0       0       0       0       0       0       0       0       0       0
       0       0       0       0       0       0       0       0       0       0
       0       0       0       0       0       0       0       0       0       0
       0       0       0       0       0       0       0       0       0       0
       0       0       0       0       0       0       0       0       0       0
       0       0       0       0       0       0       0       0       0       0
       0       0       0       0       0       0       0       0       0       0
       0       0       0       0       0       0       0       0       0       0
       0       0       0       0       0       0       0       0       0       0
       0       0       0       0       0       0       0       0       0       0
       0       0       0       0       0       0       0       0       0       0
       0       0       0       0       0       0       0       0       0       0
       0       0       0       0       0       0       0       0       0       0
       0       0       0       0       0       0       0       0       0       0
       0       0       0       0       0       0       0       0       0       0
       0       0       0       0       0       0       0       0       0       0
       0       0       0       0       0       0       0       0       0       0
       0       0       0       0       0       0       0       0       0       0
       0       0       0       0       0       0       0       0       0       0
       0       0       0       0       0       0       0       0       0       0
       0       0       0       0       0       0       0       0       0       0
       0       0       0       0       0       0       0       0       0       0
       0       0       0       0       0       0       0       0       0       0
       0       0       0       0       0       0       0       0       0       0
       0       0       0       0       0       0       0       0       0       0
       0       0       0       0       0       0       0       0       0       0
       0       0       0       0       0       0       0       0       0       0
       0       0       0       0       0       0       0       0       0       0
       0       0       0       0       0       0       0       0       0       0
       0       0       0       0       0       0       0       0       0       0
       0       0       0       0       0       0       0       0       0       0
       0       0       0       0       0       0       0       0       0       0
       0       0       0       0       0       0       0       0       0       0
       0       0       0       0       0       0       0       0       0       0
       0       0       0       0       0       0       0       0       0       0
       0       0       0       0       0       0       0       0       0       0
       0       0       0       0       0       0       0       0       0       0
       0       0       0       0       0       0       0       0       0       0
       0       0       0       0       0       0       0       0       0       0
       0       0       0       0       0       0       0       0       0       0
       0       0       0       0       0       0       0       0       0       0
       0       0       0       0       0       0       0       0       0       0
       0       0       0       0       0       0       0       0       0       0
       0       0       0       0       0       0       0       0       0       0
       0       0       0       0       0       0       0       0       0       0
       0       0       0       0       0       0       0       0       0       0
       0       0       0       0       0       0       0       0       0       0
       0       0       0       0       0       0       0       0       0       0
       0       0       0       0       0       0       0       0       0       0
       0       0       0       0       0       0       0       0       0       0
       0       0       0       0       0       0       0       0       0       0
       0       0       0       0       0       0       0       0       0       0
       0       0       0       0       0       0       0       0       0       0
       0       0       0       0       0       0       0       0       0       0
       0       0       0       0       0       0       0       0       0       0
       0       0       0       0       0       0       0       0       0       0
       0       0       0       0       0       0       0       0       0       0
       0       0       0       0       0       0       0       0       0       0
       0       0       0       0       0       0       0       0       0       0
       0       0       0       0       0       0       0       0       0       0
       0       0       0       0       0       0       0       0       0       0
       0       0       0       0       0       0       0       0       0       0
       0       0       0       0       0       0       0       0       0       0
       0       0       0       0       0       0       0       0       0       0
       0       0       0       0       0       0       0       0       0       0
       0       0       0       0       0       0       0       0       0       0
       0       0       0       0       0       0       0       0       0       0
       0       0       0       0       0       0       0       0       0       0
       0       0       0       0       0       0       0       0       0       0
       0       0       0       0       0       0       0       0       0       0
       0       0       0       0       0       0       0       0       0       0
       0       0       0       0       0       0       0       0       0       0
       0       0       0       0       0       0       0       0       0       0
       0       0       0       0       0       0       0       0       0       0
       0       0       0       0       0       0       0       0       0       0
       0       0       0       0       0       0       0       0       0       0
       0       0       0       0       0       0       0       0       0       0
       0       0       0       0       0       0       0       0       0       0
       0       0       0       0       0       0       0       0       0       0
       0       0       0       0       0       0       0       0       0       0
       0       0       0       0       0       0       0       0       0       0
       0       0       0       0       0       0       0       0       0       0
       0       0       0       0       0       0       0       0       0       0
       0       0       0       0       0       0       0       0       0       0
       0       0       0       0       0       0       0       0       0       0
       0       0       0       0       0       0       0       0       0       0
       0       0       0       0       0       0       0       0       0       0
       0       0       0       0       0       0       0       0       0       0
       0       0       0       0       0       0       0       0       0       0
       0       0       0       0       0       0       0       0       0       0
       0       0       0       0       0       0       0       0       0       0
       0       0       0       0       0       0       0       0       0       0
       0       0       0       0       0       0       0       0       0       0
       0       0       0       0       0       0       0       0       0       0
       0       0       0       0       0       0       0       0       0       0
       0       0       0       0       0       0       0       0       0       0
       0       0       0       0       0       0       0       0       0       0
       0       0       0       0       0       0       0       0       0       0
       0       0       0       0       0       0       0       0       0       0
       0       0       0       0       0       0       0       0       0       0
       0       0       0       0       0       0       0       0       0       0
       0       0       0       0       0       0       0       0       0       0
       0       0       0       0       0       0       0       0       0       0
       0       0       0       0       0       0       0       0       0       0
       0       0       0       0       0       0       0       0       0       0
       0       0       0       0       0       0       0       0       0       0
       0       0       0       0       0       0       0       0       0       0
       0       0       0       0       0       0       0       0       0       0
       0       0       0       0       0       0       0       0       0       0
       0       0       0       0       0       0       0       0       0       0
       0       0       0       0       0       0       0       0       0       0
       0       0       0       0       0       0       0       0       0       0
       0       0       0       0       0       0       0       0       0       0
       0       0       0       0       0       0       0       0       0       0
       0       0       0       0       0       0       0       0       0       0
       0       0       0       0       0       0       0       0       0       0
       0       0       0       0       0       0       0       0       0       0
       0       0       0       0       0       0       0       0       0       0
       0       0       0       0       0       0       0       0       0       0
       0       0       0       0       0       0       0       0       0       0
       0       0       0       0       0       0       0       0       0       0
       0       0       0       0       0       0       0       0       0       0
       0       0       0       0       0       0       0       0       0       0
       0       0       0       0       0       0       0       0       0       0
       0       0       0       0       0       0       0       0       0       0
       0       0       0       0       0       0       0       0       0       0
       0       0       0       0       0       0       0       0       0       0
       0       0       0       0       0       0       0       0       0       0
       0       0       0       0       0       0       0       0       0       0
       0       0       0       0       0       0       0       0       0       0
       0       0       0       0       0       0       0       0       0       0
       0       0       0       0       0       0       0       0       0       0
       0       0       0       0       0       0       0       0       0       0
       0       0       0       0       0       0       0       0       0       0
       0       0       0       0       0       0       0       0       0       0
       0       0       0       0       0       0       0       0       0       0
       0       0       0       0       0       0       0       0       0       0
       0       0       0       0       0       0       0       0       0       0
       0       0       0       0       0       0       0       0       0       0
       0       0       0       0       0       0       0       0       0       0
       0       0       0       0       0       0       0       0       0       0
       0       0       0       0       0       0       0       0       0       0
       0       0       0       0       0       0       0       0       0       0
       0       0       0       0       0       0       0       0       0       0
       0       0       0       0       0       0       0       0       0       0
       0       0       0       0       0       0       0       0       0       0
       0       0       0       0       0       0       0       0       0       0
       0       0       0       0       0       0       0       0       0       0
       0       0       0       0       0       0       0       0       0       0
       0       0       0       0       0       0       0       0       0       0
       0       0       0       0       0       0       0       0       0       0
       0       0       0       0       0       0       0       0       0       0
       0       0       0       0       0       0       0       0       0       0
       0       0       0       0       0       0       0       0       0       0
       0       0       0       0       0       0       0       0       0       0
       0       0       0       0       0       0       0       0       0       0
       0       0       0       0       0       0       0       0       0       0
       0       0       0       0       0       0       0       0       0       0
       0       0       0       0       0       0       0       0       0       0
       0       0       0       0       0       0       0       0       0       0
       0       0       0       0       0       0       0       0       0       0
       0       0       0       0       0       0       0       0       0       0
       0       0       0       0       0       0       0       0       0       0
       0       0       0       0       0       0       0       0       0       0
       0       0       0       0       0       0       0       0       0       0
       0       0       0       0       0       0       0       0       0       0
       0       0       0       0       0       0       0       0       0       0
       0       0       0       0       0       0       0       0       0       0
       0       0       0       0       0       0       0       0       0       0
       0       0       0       0       0       0       0       0       0       0
       0       0       0       0       0       0       0       0       0       0
       0       0       0       0       0       0       0       0       0       0
       0       0       0       0       0       0       0       0       0       0
       0       0       0       0       0       0       0       0       0       0
       0       0       0       0       0       0       0       0       0       0
       0       0       0       0       0       0       0       0       0       0
       0       0       0       0       0       0       0       0       0       0
       0       0       0       0       0       0       0       0       0       0
       0       0       0       0       0       0       0       0       0       0
       0       0       0       0       0       0       0       0       0       0
       0       0       0       0       0       0       0       0       0       0
       0       0       0       0       0       0       0       0       0       0
       0       0       0       0       0       0       0       0       0       0
       0       0       0       0       0       0       0       0       0       0
       0       0       0       0       0       0       0       0       0       0
       0       0       0       0       0       0       0       0       0       0
       0       0       0       0       0       0       0       0       0       0
       0       0       0       0       0       0       0       0       0       0
       0       0       0       0       0       0       0       0       0       0
       0       0       0       0       0       0       0       0       0       0
       0       0       0       0       0       0       0       0       0       0
       0       0       0       0       0       0       0       0       0       0
       0       0       0       0       0       0       0       0       0       0
       0       0       0       0       0       0       0       0       0       0
       0       0       0       0       0       0       0       0       0       0
       0       0       0       0       0       0       0       0       0       0
       0       0       0       0       0       0       0       0       0       0
       0       0       0       0       0       0       0       0       0       0
       0       0       0       0       0       0       0       0       0       0
       0       0       0       0       0       0       0       0       0       0
       0       0       0       0       0       0       0       0       0       0
       0       0       0       0       0       0       0       0       0       0
       0       0       0       0       0       0       0       0       0       0
       0       0       0       0       0       0       0       0       0       0
       0       0       0       0       0       0       0       0       0       0
       0       0       0       0       0       0       0       0       0       0
       0       0       0       0       0       0       0       0       0       0
       0       0       0       0       0       0       0       0       0       0
       0       0       0       0       0       0       0       0       0       0
       0       0       0       0       0       0       0       0       0       0
       0       0       0       0       0       0       0       0       0       0
       0       0       0       0       0       0       0       0       0       0
       0       0       0       0       0       0       0       0       0       0
       0       0       0       0       0       0       0       0       0       0
       0       0       0       0       0       0       0       0       0       0
       0       0       0       0       0       0       0       0       0       0
       0       0       0       0       0       0       0       0       0       0
       0       0       0       0       0       0       0       0       0       0
       0       0       0       0       0       0       0       0       0       0
       0       0       0       0       0       0       0       0       0       0
       0       0       0       0       0       0       0       0       0       0
       0       0       0       0       0       0       0       0       0       0
       0       0       0       0       0       0       0       0       0       0
       0       0       0       0       0       0       0       0       0       0
       0       0       0       0       0       0       0       0       0       0
       0       0       0       0       0       0       0       0       0       0
       0       0       0       0       0       0       0       0       0       0
       0       0       0       0       0       0       0       0       0       0
       0       0       0       0       0       0       0       0       0       0
       0       0       0       0       0       0       0       0       0       0
       0       0       0       0       0       0       0       0       0       0
       0       0       0       0       0       0       0       0       0       0
       0       0       0       0       0       0       0       0       0       0
       0       0       0       0       0       0       0       0       0       0
       0       0       0       0       0       0       0       0       0       0
       0       0       0       0       0       0       0       0       0       0
       0       0       0       0       0       0       0       0       0       0
       0       0       0       0       0       0       0       0       0       0
       0       0       0       0       0       0       0       0       0       0
       0       0       0       0       0       0       0       0       0       0
       0       0       0       0       0       0       0       0       0       0
       0       0       0       0       0       0       0       0       0       0
       0       0       0       0       0       0       0       0       0       0
       0       0       0       0       0       0       0       0       0       0
       0       0       0       0       0       0       0       0       0       0
       0       0       0       0       0       0       0       0       0       0
       0       0       0       0       0       0       0       0       0       0
       0       0       0       0       0       0       0       0       0       0
       0       0       0       0       0       0       0       0       0       0
       0       0       0       0       0       0       0       0       0       0
       0       0       0       0       0       0       0       0       0       0
       0       0       0       0       0       0       0       0       0       0
       0       0       0       0       0       0       0       0       0       0
       0       0       0       0       0       0       0       0       0       0
       0       0       0       0       0       0       0       0       0       0
       0       0       0       0       0       0       0       0       0       0
       0       0       0       0       0       0       0       0       0       0
       0       0       0       0       0       0       0       0       0       0
       0       0       0       0       0       0       0       0       0       0
       0       0       0       0       0       0       0       0       0       0
       0       0       0       0       0       0       0       0       0       0
       0       0       0       0       0       0       0       0       0       0
       0       0       0       0       0       0       0       0       0       0
       0       0       0       0       0       0       0       0       0       0
       0       0       0       0       0       0       0       0       0       0
       0       0       0       0       0       0       0       0       0       0
       0       0       0       0       0       0       0       0       0       0
       0       0       0       0       0       0       0       0       0       0
       0       0       0       0       0       0       0       0       0       0
       0       0       0       0       0       0       0       0       0       0
       0       0       0       0       0       0       0       0       0       0
       0       0       0       0       0       0       0       0       0       0
       0       0       0       0       0       0       0       0       0       0
       0       0       0       0       0       0       0       0       0       0
       0       0       0       0       0       0       0       0       0       0
       0       0       0       0       0       0       0       0       0       0
       0       0       0       0       0       0       0       0       0       0
       0       0       0       0       0       0       0       0       0       0
       0       0       0       0       0       0       0       0       0       0
       0       0       0       0       0       0       0       0       0       0
       0       0       0       0       0       0       0       0       0       0
       0       0       0       0       0       0       0       0       0       0
       0       0       0       0       0       0       0       0       0       0
       0       0       0       0       0       0       0       0       0       0
       0       0       0       0       0       0       0       0       0       0
       0       0       0       0       0       0       0       0       0       0
       0       0       0       0       0       0       0       0       0       0
       0       0       0       0       0       0       0       0       0       0
       0       0       0       0       0       0       0       0       0       0
       0       0       0       0       0       0       0       0       0       0
       0       0       0       0       0       0       0       0       0       0
       0       0       0       0       0       0       0       0       0       0
       0       0       0       0       0       0       0       0       0       0
       0       0       0       0       0       0       0       0       0       0
       0       0       0       0       0       0       0       0       0       0
       0       0       0       0       0       0       0       0       0       0
       0       0       0       0       0       0       0       0       0       0
       0       0       0       0       0       0       0       0       0       0
       0       0       0       0       0       0       0       0       0       0
       0       0       0       0       0       0       0       0       0       0
       0       0       0       0       0       0       0       0       0       0
       0       0       0       0       0       0       0       0       0       0
       0       0       0       0       0       0       0       0       0       0
       0       0       0       0       0       0       0       0       0       0
       0       0       0       0       0       0       0       0       0       0
       0       0       0       0       0       0       0       0       0       0
       0       0       0       0       0       0       0       0       0       0
       0       0       0       0       0       0       0       0       0       0
       0       0       0       0       0       0       0       0       0       0
       0       0       0       0       0       0       0       0       0       0
       0       0       0       0       0       0       0       0       0       0
       0       0       0       0       0       0       0       0       0       0
       0       0       0       0       0       0       0       0       0       0
       0       0       0       0       0       0       0       0       0       0
       0       0       0       0       0       0       0       0       0       0
       0       0       0       0       0       0       0       0       0       0
       0       0       0       0       0       0       0       0       0       0
       0       0       0       0       0       0       0       0       0       0
       0       0       0       0       0       0       0       0       0       0
       0       0       0       0       0       0       0       0       0       0
       0       0       0       0       0       0       0       0       0       0
       0       0       0       0       0       0       0       0       0       0
       0       0       0       0       0       0       0       0       0       0
       0       0       0       0       0       0       0       0       0       0
       0       0       0       0       0       0       0       0       0       0
       0       0       0       0       0       0       0       0       0       0
       0       0       0       0       0       0       0       0       0       0
       0       0       0       0       0       0       0       0       0       0
       0       0       0       0       0       0       0       0       0       0
       0       0       0       0       0       0       0       0       0       0
       0       0       0       0       0       0       0       0       0       0
       0       0       0       0       0       0       0       0       0       0
       0       0       0       0       0       0       0       0       0       0
       0       0       0       0       0       0       0       0       0       0
       0       0       0       0       0       0       0       0       0       0
       0       0       0       0       0       0       0       0       0       0
       0       0       0       0       0       0       0       0       0       0
       0       0       0       0       0       0       0       0       0       0
       0       0       0       0       0       0       0       0       0       0
       0       0       0       0       0       0       0       0       0       0
       0       0       0       0       0       0       0       0       0       0
       0       0       0       0       0       0       0       0       0       0
       0       0       0       0       0       0       0       0       0       0
       0       0       0       0       0       0       0       0       0       0
       0       0       0       0       0       0       0       0       0       0
       0       0       0       0       0       0       0       0       0       0
       0       0       0       0       0       0       0       0       0       0
       0       0       0       0       0       0       0       0       0       0
       0       0       0       0       0       0       0       0       0       0
       0       0       0       0       0       0       0       0       0       0
       0       0       0       0       0       0       0       0       0       0
       0       0       0       0       0       0       0       0       0       0
       0       0       0       0       0       0       0       0       0       0
       0       0       0       0       0       0       0       0       0       0
       0       0       0       0       0       0       0       0       0       0
       0       0       0       0       0       0       0       0       0       0
       0       0       0       0       0       0       0       0       0       0
       0       0       0       0       0       0       0       0       0       0
       0       0       0       0       0       0       0       0       0       0
       0       0       0       0       0       0       0       0       0       0
       0       0       0       0       0       0       0       0       0       0
       0       0       0       0       0       0       0       0       0       0
       0       0       0       0       0       0       0       0       0       0
       0       0       0       0       0       0       0       0       0       0
       0       0       0       0       0       0       0       0       0       0
       0       0       0       0       0       0       0       0       0       0
       0       0       0       0       0       0       0       0       0       0
       0       0       0       0       0       0       0       0       0       0
       0       0       0       0       0       0       0       0       0       0
       0       0       0       0       0       0       0       0       0       0
       0       0       0       0       0       0       0       0       0       0
       0       0       0       0       0       0       0       0       0       0
       0       0       0       0       0       0       0       0       0       0
       0       0       0       0       0       0       0       0       0       0
       0       0       0       0       0       0       0       0       0       0
       0       0       0       0       0       0       0       0       0       0
       0       0       0       0       0       0       0       0       0       0
       0       0       0       0       0       0       0       0       0       0
       0       0       0       0       0       0       0       0       0       0
       0       0       0       0       0       0       0       0       0       0
       0       0       0       0       0       0       0       0       0       0
       0       0       0       0       0       0       0       0       0       0
       0       0       0       0       0       0       0       0       0       0
       0       0       0       0       0       0       0       0       0       0
       0       0       0       0       0       0       0       0       0       0
       0       0       0       0       0       0       0       0       0       0
       0       0       0       0       0       0       0       0       0       0
       0       0       0       0       0       0       0       0       0       0
       0       0       0       0       0       0       0       0       0       0
       0       0       0       0       0       0       0       0       0       0
       0       0       0       0       0       0       0       0       0       0
       0       0       0       0       0       0       0       0       0       0
       0       0       0       0       0       0       0       0       0       0
       0       0       0       0       0       0       0       0       0       0
       0       0       0       0       0       0       0       0       0       0
       0       0       0       0       0       0       0       0       0       0
       0       0       0       0       0       0       0       0       0       0
       0       0       0       0       0       0       0       0       0       0
       0       0       0       0       0       0       0       0       0       0
       0       0       0       0       0       0       0       0       0       0
       0       0       0       0       0       0       0       0       0       0
       0       0       0       0       0       0       0       0       0       0
       0       0       0       0       0       0       0       0       0       0
       0       0       0       0       0       0       0       0       0       0
       0       0       0       0       0       0       0       0       0       0
%FLAG RADIUS_SET                                                                
%FORMAT(1a80)                                                                   
modified Bondi radii (mbondi)                                                   
%FLAG RADII                                                                     
%FORMAT(5E16.8)                                                                 
  1.70000000E+00  1.70000000E+00  1.70000000E+00  1.70000000E+00  1.70000000E+00
  1.30000000E+00  1.70000000E+00  1.70000000E+00  1.70000000E+00  1.30000000E+00
  1.70000000E+00  1.70000000E+00  1.30000000E+00  1.30000000E+00  1.70000000E+00
  1.70000000E+00  1.70000000E+00  1.30000000E+00  1.70000000E+00  1.70000000E+00
  1.70000000E+00  1.30000000E+00  1.70000000E+00  1.30000000E+00  1.30000000E+00
  1.30000000E+00  1.70000000E+00  1.70000000E+00  1.30000000E+00  1.70000000E+00
  1.70000000E+00  1.30000000E+00  1.70000000E+00  1.30000000E+00  1.30000000E+00
  1.30000000E+00  1.70000000E+00  1.70000000E+00  1.70000000E+00  1.70000000E+00
  1.70000000E+00  1.30000000E+00  1.70000000E+00  1.70000000E+00  1.70000000E+00
  1.30000000E+00  1.70000000E+00  1.70000000E+00  1.30000000E+00  1.30000000E+00
  1.70000000E+00  1.70000000E+00  1.70000000E+00  1.30000000E+00  1.70000000E+00
  1.70000000E+00  1.70000000E+00  1.30000000E+00  1.70000000E+00  1.30000000E+00
  1.30000000E+00  1.30000000E+00  1.70000000E+00  1.70000000E+00  1.30000000E+00
  1.70000000E+00  1.70000000E+00  1.30000000E+00  1.70000000E+00  1.30000000E+00
  1.30000000E+00  1.30000000E+00  1.70000000E+00  1.70000000E+00  1.70000000E+00
  1.70000000E+00  1.70000000E+00  1.30000000E+00  1.70000000E+00  1.70000000E+00
  1.70000000E+00  1.30000000E+00  1.70000000E+00  1.70000000E+00  1.30000000E+00
  1.30000000E+00  1.70000000E+00  1.70000000E+00  1.70000000E+00  1.30000000E+00
  1.70000000E+00  1.70000000E+00  1.70000000E+00  1.30000000E+00  1.70000000E+00
  1.30000000E+00  1.30000000E+00  1.30000000E+00  1.70000000E+00  1.70000000E+00
  1.30000000E+00  1.70000000E+00  1.70000000E+00  1.30000000E+00  1.70000000E+00
  1.30000000E+00  1.30000000E+00  1.30000000E+00  1.70000000E+00  1.70000000E+00
  1.70000000E+00  1.70000000E+00  1.70000000E+00  1.30000000E+00  1.70000000E+00
  1.70000000E+00  1.70000000E+00  1.30000000E+00  1.70000000E+00  1.70000000E+00
  1.30000000E+00  1.30000000E+00  1.70000000E+00  1.70000000E+00  1.70000000E+00
  1.30000000E+00  1.70000000E+00  1.70000000E+00  1.70000000E+00  1.30000000E+00
  1.70000000E+00  1.30000000E+00  1.30000000E+00  1.30000000E+00  1.70000000E+00
  1.70000000E+00  1.30000000E+00  1.70000000E+00  1.70000000E+00  1.30000000E+00
  1.70000000E+00  1.30000000E+00  1.30000000E+00  1.30000000E+00  1.70000000E+00
  1.70000000E+00  1.70000000E+00  1.70000000E+00  1.70000000E+00  1.30000000E+00
  1.70000000E+00  1.70000000E+00  1.70000000E+00  1.30000000E+00  1.70000000E+00
  1.70000000E+00  1.30000000E+00  1.30000000E+00  1.70000000E+00  1.70000000E+00
  1.70000000E+00  1.30000000E+00  1.70000000E+00  1.70000000E+00  1.70000000E+00
  1.30000000E+00  1.70000000E+00  1.30000000E+00  1.30000000E+00  1.30000000E+00
  1.70000000E+00  1.70000000E+00  1.30000000E+00  1.70000000E+00  1.70000000E+00
  1.30000000E+00  1.70000000E+00  1.30000000E+00  1.30000000E+00  1.30000000E+00
  1.70000000E+00  1.70000000E+00  1.70000000E+00  1.70000000E+00  1.70000000E+00
  1.30000000E+00  1.70000000E+00  1.70000000E+00  1.70000000E+00  1.30000000E+00
  1.70000000E+00  1.70000000E+00  1.30000000E+00  1.30000000E+00  1.70000000E+00
  1.70000000E+00  1.70000000E+00  1.30000000E+00  1.70000000E+00  1.70000000E+00
  1.70000000E+00  1.30000000E+00  1.70000000E+00  1.30000000E+00  1.30000000E+00
  1.30000000E+00  1.70000000E+00  1.70000000E+00  1.30000000E+00  1.70000000E+00
  1.70000000E+00  1.30000000E+00  1.70000000E+00  1.30000000E+00  1.30000000E+00
  1.30000000E+00  1.70000000E+00  1.70000000E+00  1.70000000E+00  1.70000000E+00
  1.70000000E+00  1.30000000E+00  1.70000000E+00  1.70000000E+00  1.70000000E+00
  1.30000000E+00  1.70000000E+00  1.70000000E+00  1.30000000E+00  1.30000000E+00
  1.70000000E+00  1.70000000E+00  1.70000000E+00  1.30000000E+00  1.70000000E+00
  1.70000000E+00  1.70000000E+00  1.30000000E+00  1.70000000E+00  1.30000000E+00
  1.30000000E+00  1.30000000E+00  1.70000000E+00  1.70000000E+00  1.30000000E+00
  1.70000000E+00  1.70000000E+00  1.30000000E+00  1.70000000E+00  1.30000000E+00
  1.30000000E+00  1.30000000E+00  1.70000000E+00  1.70000000E+00  1.70000000E+00
  1.70000000E+00  1.70000000E+00  1.30000000E+00  1.70000000E+00  1.70000000E+00
  1.70000000E+00  1.30000000E+00  1.70000000E+00  1.70000000E+00  1.30000000E+00
  1.30000000E+00  1.70000000E+00  1.70000000E+00  1.70000000E+00  1.30000000E+00
  1.70000000E+00  1.70000000E+00  1.70000000E+00  1.30000000E+00  1.70000000E+00
  1.30000000E+00  1.30000000E+00  1.30000000E+00  1.70000000E+00  1.70000000E+00
  1.30000000E+00  1.70000000E+00  1.70000000E+00  1.30000000E+00  1.70000000E+00
  1.30000000E+00  1.30000000E+00  1.30000000E+00  1.70000000E+00  1.70000000E+00
  1.70000000E+00  1.70000000E+00  1.70000000E+00  1.30000000E+00  1.70000000E+00
  1.70000000E+00  1.70000000E+00  1.30000000E+00  1.70000000E+00  1.70000000E+00
  1.30000000E+00  1.30000000E+00  1.70000000E+00  1.70000000E+00  1.70000000E+00
  1.30000000E+00  1.70000000E+00  1.70000000E+00  1.70000000E+00  1.30000000E+00
  1.70000000E+00  1.30000000E+00  1.30000000E+00  1.30000000E+00  1.70000000E+00
  1.70000000E+00  1.30000000E+00  1.70000000E+00  1.70000000E+00  1.30000000E+00
  1.70000000E+00  1.30000000E+00  1.30000000E+00  1.30000000E+00  1.70000000E+00
  1.70000000E+00  1.70000000E+00  1.70000000E+00  1.70000000E+00  1.30000000E+00
  1.70000000E+00  1.70000000E+00  1.70000000E+00  1.30000000E+00  1.70000000E+00
  1.70000000E+00  1.30000000E+00  1.30000000E+00  1.70000000E+00  1.70000000E+00
  1.70000000E+00  1.30000000E+00  1.70000000E+00  1.70000000E+00  1.70000000E+00
  1.30000000E+00  1.70000000E+00  1.30000000E+00  1.30000000E+00  1.30000000E+00
  1.70000000E+00  1.70000000E+00  1.30000000E+00  1.70000000E+00  1.70000000E+00
  1.30000000E+00  1.70000000E+00  1.30000000E+00  1.30000000E+00  1.30000000E+00
  1.70000000E+00  1.70000000E+00  1.70000000E+00  1.70000000E+00  1.70000000E+00
  1.30000000E+00  1.70000000E+00  1.70000000E+00  1.70000000E+00  1.30000000E+00
  1.70000000E+00  1.70000000E+00  1.30000000E+00  1.30000000E+00  1.70000000E+00
  1.70000000E+00  1.70000000E+00  1.30000000E+00  1.70000000E+00  1.70000000E+00
  1.70000000E+00  1.30000000E+00  1.70000000E+00  1.30000000E+00  1.30000000E+00
  1.30000000E+00  1.70000000E+00  1.70000000E+00  1.30000000E+00  1.70000000E+00
  1.70000000E+00  1.30000000E+00  1.70000000E+00  1.30000000E+00  1.30000000E+00
  1.30000000E+00  1.70000000E+00  1.70000000E+00  1.70000000E+00  1.70000000E+00
  1.70000000E+00  1.30000000E+00  1.70000000E+00  1.70000000E+00  1.70000000E+00
  1.30000000E+00  1.70000000E+00  1.70000000E+00  1.30000000E+00  1.30000000E+00
  1.70000000E+00  1.70000000E+00  1.70000000E+00  1.30000000E+00  1.70000000E+00
  1.70000000E+00  1.70000000E+00  1.30000000E+00  1.70000000E+00  1.30000000E+00
  1.30000000E+00  1.30000000E+00  1.70000000E+00  1.70000000E+00  1.30000000E+00
  1.70000000E+00  1.70000000E+00  1.30000000E+00  1.70000000E+00  1.30000000E+00
  1.30000000E+00  1.30000000E+00  1.70000000E+00  1.70000000E+00  1.70000000E+00
  1.70000000E+00  1.70000000E+00  1.30000000E+00  1.70000000E+00  1.70000000E+00
  1.70000000E+00  1.30000000E+00  1.70000000E+00  1.70000000E+00  1.30000000E+00
  1.30000000E+00  1.70000000E+00  1.70000000E+00  1.70000000E+00  1.30000000E+00
  1.70000000E+00  1.70000000E+00  1.70000000E+00  1.30000000E+00  1.70000000E+00
  1.30000000E+00  1.30000000E+00  1.30000000E+00  1.70000000E+00  1.70000000E+00
  1.30000000E+00  1.70000000E+00  1.70000000E+00  1.30000000E+00  1.70000000E+00
  1.30000000E+00  1.30000000E+00  1.30000000E+00  1.70000000E+00  1.70000000E+00
  1.70000000E+00  1.70000000E+00  1.70000000E+00  1.30000000E+00  1.70000000E+00
  1.70000000E+00  1.70000000E+00  1.30000000E+00  1.70000000E+00  1.70000000E+00
  1.30000000E+00  1.30000000E+00  1.70000000E+00  1.70000000E+00  1.70000000E+00
  1.30000000E+00  1.70000000E+00  1.70000000E+00  1.70000000E+00  1.30000000E+00
  1.70000000E+00  1.30000000E+00  1.30000000E+00  1.30000000E+00  1.70000000E+00
  1.70000000E+00  1.30000000E+00  1.70000000E+00  1.70000000E+00  1.30000000E+00
  1.70000000E+00  1.30000000E+00  1.30000000E+00  1.30000000E+00  1.70000000E+00
  1.70000000E+00  1.70000000E+00  1.70000000E+00  1.70000000E+00  1.30000000E+00
  1.70000000E+00  1.70000000E+00  1.70000000E+00  1.30000000E+00  1.70000000E+00
  1.70000000E+00  1.30000000E+00  1.30000000E+00  1.70000000E+00  1.70000000E+00
  1.70000000E+00  1.30000000E+00  1.70000000E+00  1.70000000E+00  1.70000000E+00
  1.30000000E+00  1.70000000E+00  1.30000000E+00  1.30000000E+00  1.30000000E+00
  1.70000000E+00  1.70000000E+00  1.30000000E+00  1.70000000E+00  1.70000000E+00
  1.30000000E+00  1.70000000E+00  1.30000000E+00  1.30000000E+00  1.30000000E+00
  1.70000000E+00  1.70000000E+00  1.70000000E+00  1.70000000E+00  1.70000000E+00
  1.30000000E+00  1.70000000E+00  1.70000000E+00  1.70000000E+00  1.30000000E+00
  1.70000000E+00  1.70000000E+00  1.30000000E+00  1.30000000E+00  1.70000000E+00
  1.70000000E+00  1.70000000E+00  1.30000000E+00  1.70000000E+00  1.70000000E+00
  1.70000000E+00  1.30000000E+00  1.70000000E+00  1.30000000E+00  1.30000000E+00
  1.30000000E+00  1.70000000E+00  1.70000000E+00  1.30000000E+00  1.70000000E+00
  1.70000000E+00  1.30000000E+00  1.70000000E+00  1.30000000E+00  1.30000000E+00
  1.30000000E+00  1.70000000E+00  1.70000000E+00  1.70000000E+00  1.70000000E+00
  1.70000000E+00  1.30000000E+00  1.70000000E+00  1.70000000E+00  1.70000000E+00
  1.30000000E+00  1.70000000E+00  1.70000000E+00  1.30000000E+00  1.30000000E+00
  1.70000000E+00  1.70000000E+00  1.70000000E+00  1.30000000E+00  1.70000000E+00
  1.70000000E+00  1.70000000E+00  1.30000000E+00  1.70000000E+00  1.30000000E+00
  1.30000000E+00  1.30000000E+00  1.70000000E+00  1.70000000E+00  1.30000000E+00
  1.70000000E+00  1.70000000E+00  1.30000000E+00  1.70000000E+00  1.30000000E+00
  1.30000000E+00  1.30000000E+00  1.70000000E+00  1.70000000E+00  1.70000000E+00
  1.70000000E+00  1.70000000E+00  1.30000000E+00  1.70000000E+00  1.70000000E+00
  1.70000000E+00  1.30000000E+00  1.70000000E+00  1.70000000E+00  1.30000000E+00
  1.30000000E+00  1.70000000E+00  1.70000000E+00  1.70000000E+00  1.30000000E+00
  1.70000000E+00  1.70000000E+00  1.70000000E+00  1.30000000E+00  1.70000000E+00
  1.30000000E+00  1.30000000E+00  1.30000000E+00  1.70000000E+00  1.70000000E+00
  1.30000000E+00  1.70000000E+00  1.70000000E+00  1.30000000E+00  1.70000000E+00
  1.30000000E+00  1.30000000E+00  1.30000000E+00  1.70000000E+00  1.70000000E+00
  1.70000000E+00  1.70000000E+00  1.70000000E+00  1.30000000E+00  1.70000000E+00
  1.70000000E+00  1.70000000E+00  1.30000000E+00  1.70000000E+00  1.70000000E+00
  1.30000000E+00  1.30000000E+00  1.70000000E+00  1.70000000E+00  1.70000000E+00
  1.30000000E+00  1.70000000E+00  1.70000000E+00  1.70000000E+00  1.30000000E+00
  1.70000000E+00  1.30000000E+00  1.30000000E+00  1.30000000E+00  1.70000000E+00
  1.70000000E+00  1.30000000E+00  1.70000000E+00  1.70000000E+00  1.30000000E+00
  1.70000000E+00  1.30000000E+00  1.30000000E+00  1.30000000E+00  1.70000000E+00
  1.70000000E+00  1.70000000E+00  1.70000000E+00  1.70000000E+00  1.30000000E+00
  1.70000000E+00  1.70000000E+00  1.70000000E+00  1.30000000E+00  1.70000000E+00
  1.70000000E+00  1.30000000E+00  1.30000000E+00  1.70000000E+00  1.70000000E+00
  1.70000000E+00  1.30000000E+00  1.70000000E+00  1.70000000E+00  1.70000000E+00
  1.30000000E+00  1.70000000E+00  1.30000000E+00  1.30000000E+00  1.30000000E+00
  1.70000000E+00  1.70000000E+00  1.30000000E+00  1.70000000E+00  1.70000000E+00
  1.30000000E+00  1.70000000E+00  1.30000000E+00  1.30000000E+00  1.30000000E+00
  1.70000000E+00  1.70000000E+00  1.70000000E+00  1.70000000E+00  1.70000000E+00
  1.30000000E+00  1.70000000E+00  1.70000000E+00  1.70000000E+00  1.30000000E+00
  1.70000000E+00  1.70000000E+00  1.30000000E+00  1.30000000E+00  1.70000000E+00
  1.70000000E+00  1.70000000E+00  1.30000000E+00  1.70000000E+00  1.70000000E+00
  1.70000000E+00  1.30000000E+00  1.70000000E+00  1.30000000E+00  1.30000000E+00
  1.30000000E+00  1.70000000E+00  1.70000000E+00  1.30000000E+00  1.70000000E+00
  1.70000000E+00  1.30000000E+00  1.70000000E+00  1.30000000E+00  1.30000000E+00
  1.30000000E+00  1.70000000E+00  1.70000000E+00  1.70000000E+00  1.70000000E+00
  1.70000000E+00  1.30000000E+00  1.70000000E+00  1.70000000E+00  1.70000000E+00
  1.30000000E+00  1.70000000E+00  1.70000000E+00  1.30000000E+00  1.30000000E+00
  1.70000000E+00  1.70000000E+00  1.70000000E+00  1.30000000E+00  1.70000000E+00
  1.70000000E+00  1.70000000E+00  1.30000000E+00  1.70000000E+00  1.30000000E+00
  1.30000000E+00  1.30000000E+00  1.70000000E+00  1.70000000E+00  1.30000000E+00
  1.70000000E+00  1.70000000E+00  1.30000000E+00  1.70000000E+00  1.30000000E+00
  1.30000000E+00  1.30000000E+00  1.70000000E+00  1.70000000E+00  1.70000000E+00
  1.70000000E+00  1.70000000E+00  1.30000000E+00  1.70000000E+00  1.70000000E+00
  1.70000000E+00  1.30000000E+00  1.70000000E+00  1.70000000E+00  1.30000000E+00
  1.30000000E+00  1.70000000E+00  1.70000000E+00  1.70000000E+00  1.30000000E+00
  1.70000000E+00  1.70000000E+00  1.70000000E+00  1.30000000E+00  1.70000000E+00
  1.30000000E+00  1.30000000E+00  1.30000000E+00  1.70000000E+00  1.70000000E+00
  1.30000000E+00  1.70000000E+00  1.70000000E+00  1.30000000E+00  1.70000000E+00
  1.30000000E+00  1.30000000E+00  1.30000000E+00  1.70000000E+00  1.70000000E+00
  1.70000000E+00  1.70000000E+00  1.70000000E+00  1.30000000E+00  1.70000000E+00
  1.70000000E+00  1.70000000E+00  1.30000000E+00  1.70000000E+00  1.70000000E+00
  1.30000000E+00  1.30000000E+00  1.70000000E+00  1.70000000E+00  1.70000000E+00
  1.30000000E+00  1.70000000E+00  1.70000000E+00  1.70000000E+00  1.30000000E+00
  1.70000000E+00  1.30000000E+00  1.30000000E+00  1.30000000E+00  1.70000000E+00
  1.70000000E+00  1.30000000E+00  1.70000000E+00  1.70000000E+00  1.30000000E+00
  1.70000000E+00  1.30000000E+00  1.30000000E+00  1.30000000E+00  1.70000000E+00
  1.70000000E+00  1.70000000E+00  1.70000000E+00  1.70000000E+00  1.30000000E+00
  1.70000000E+00  1.70000000E+00  1.70000000E+00  1.30000000E+00  1.70000000E+00
  1.70000000E+00  1.30000000E+00  1.30000000E+00  1.70000000E+00  1.70000000E+00
  1.70000000E+00  1.30000000E+00  1.70000000E+00  1.70000000E+00  1.70000000E+00
  1.30000000E+00  1.70000000E+00  1.30000000E+00  1.30000000E+00  1.30000000E+00
  1.70000000E+00  1.70000000E+00  1.30000000E+00  1.70000000E+00  1.70000000E+00
  1.30000000E+00  1.70000000E+00  1.30000000E+00  1.30000000E+00  1.30000000E+00
  1.70000000E+00  1.70000000E+00  1.70000000E+00  1.70000000E+00  1.70000000E+00
  1.30000000E+00  1.70000000E+00  1.70000000E+00  1.70000000E+00  1.30000000E+00
  1.70000000E+00  1.70000000E+00  1.30000000E+00  1.30000000E+00  1.70000000E+00
  1.70000000E+00  1.70000000E+00  1.30000000E+00  1.70000000E+00  1.70000000E+00
  1.70000000E+00  1.30000000E+00  1.70000000E+00  1.30000000E+00  1.30000000E+00
  1.30000000E+00  1.70000000E+00  1.70000000E+00  1.30000000E+00  1.70000000E+00
  1.70000000E+00  1.30000000E+00  1.70000000E+00  1.30000000E+00  1.30000000E+00
  1.30000000E+00  1.70000000E+00  1.70000000E+00  1.70000000E+00  1.70000000E+00
  1.70000000E+00  1.30000000E+00  1.70000000E+00  1.70000000E+00  1.70000000E+00
  1.30000000E+00  1.70000000E+00  1.70000000E+00  1.30000000E+00  1.30000000E+00
  1.70000000E+00  1.70000000E+00  1.70000000E+00  1.30000000E+00  1.70000000E+00
  1.70000000E+00  1.70000000E+00  1.30000000E+00  1.70000000E+00  1.30000000E+00
  1.30000000E+00  1.30000000E+00  1.70000000E+00  1.70000000E+00  1.30000000E+00
  1.70000000E+00  1.70000000E+00  1.30000000E+00  1.70000000E+00  1.30000000E+00
  1.30000000E+00  1.30000000E+00  1.70000000E+00  1.70000000E+00  1.70000000E+00
  1.70000000E+00  1.70000000E+00  1.30000000E+00  1.70000000E+00  1.70000000E+00
  1.70000000E+00  1.30000000E+00  1.70000000E+00  1.70000000E+00  1.30000000E+00
  1.30000000E+00  1.70000000E+00  1.70000000E+00  1.70000000E+00  1.30000000E+00
  1.70000000E+00  1.70000000E+00  1.70000000E+00  1.30000000E+00  1.70000000E+00
  1.30000000E+00  1.30000000E+00  1.30000000E+00  1.70000000E+00  1.70000000E+00
  1.30000000E+00  1.70000000E+00  1.70000000E+00  1.30000000E+00  1.70000000E+00
  1.30000000E+00  1.30000000E+00  1.30000000E+00  1.70000000E+00  1.70000000E+00
  1.70000000E+00  1.70000000E+00  1.70000000E+00  1.30000000E+00  1.70000000E+00
  1.70000000E+00  1.70000000E+00  1.30000000E+00  1.70000000E+00  1.70000000E+00
  1.30000000E+00  1.30000000E+00  1.70000000E+00  1.70000000E+00  1.70000000E+00
  1.30000000E+00  1.70000000E+00  1.70000000E+00  1.70000000E+00  1.30000000E+00
  1.70000000E+00  1.30000000E+00  1.30000000E+00  1.30000000E+00  1.70000000E+00
  1.70000000E+00  1.30000000E+00  1.70000000E+00  1.70000000E+00  1.30000000E+00
  1.70000000E+00  1.30000000E+00  1.30000000E+00  1.30000000E+00  1.70000000E+00
  1.70000000E+00  1.70000000E+00  1.70000000E+00  1.70000000E+00  1.30000000E+00
  1.70000000E+00  1.70000000E+00  1.70000000E+00  1.30000000E+00  1.70000000E+00
  1.70000000E+00  1.30000000E+00  1.30000000E+00  1.70000000E+00  1.70000000E+00
  1.70000000E+00  1.30000000E+00  1.70000000E+00  1.70000000E+00  1.70000000E+00
  1.30000000E+00  1.70000000E+00  1.30000000E+00  1.30000000E+00  1.30000000E+00
  1.70000000E+00  1.70000000E+00  1.30000000E+00  1.70000000E+00  1.70000000E+00
  1.30000000E+00  1.70000000E+00  1.30000000E+00  1.30000000E+00  1.30000000E+00
  1.70000000E+00  1.70000000E+00  1.70000000E+00  1.70000000E+00  1.70000000E+00
  1.30000000E+00  1.70000000E+00  1.70000000E+00  1.70000000E+00  1.30000000E+00
  1.70000000E+00  1.70000000E+00  1.30000000E+00  1.30000000E+00  1.70000000E+00
  1.70000000E+00  1.70000000E+00  1.30000000E+00  1.70000000E+00  1.70000000E+00
  1.70000000E+00  1.30000000E+00  1.70000000E+00  1.30000000E+00  1.30000000E+00
  1.30000000E+00  1.70000000E+00  1.70000000E+00  1.30000000E+00  1.70000000E+00
  1.70000000E+00  1.30000000E+00  1.70000000E+00  1.30000000E+00  1.30000000E+00
  1.30000000E+00  1.70000000E+00  1.70000000E+00  1.70000000E+00  1.70000000E+00
  1.70000000E+00  1.30000000E+00  1.70000000E+00  1.70000000E+00  1.70000000E+00
  1.30000000E+00  1.70000000E+00  1.70000000E+00  1.30000000E+00  1.30000000E+00
  1.70000000E+00  1.70000000E+00  1.70000000E+00  1.30000000E+00  1.70000000E+00
  1.70000000E+00  1.70000000E+00  1.30000000E+00  1.70000000E+00  1.30000000E+00
  1.30000000E+00  1.30000000E+00  1.70000000E+00  1.70000000E+00  1.30000000E+00
  1.70000000E+00  1.70000000E+00  1.30000000E+00  1.70000000E+00  1.30000000E+00
  1.30000000E+00  1.30000000E+00  1.70000000E+00  1.70000000E+00  1.70000000E+00
  1.70000000E+00  1.70000000E+00  1.30000000E+00  1.70000000E+00  1.70000000E+00
  1.70000000E+00  1.30000000E+00  1.70000000E+00  1.70000000E+00  1.30000000E+00
  1.30000000E+00  1.70000000E+00  1.70000000E+00  1.70000000E+00  1.30000000E+00
  1.70000000E+00  1.70000000E+00  1.70000000E+00  1.30000000E+00  1.70000000E+00
  1.30000000E+00  1.30000000E+00  1.30000000E+00  1.70000000E+00  1.70000000E+00
  1.30000000E+00  1.70000000E+00  1.70000000E+00  1.30000000E+00  1.70000000E+00
  1.30000000E+00  1.30000000E+00  1.30000000E+00  1.70000000E+00  1.70000000E+00
  1.70000000E+00  1.70000000E+00  1.70000000E+00  1.30000000E+00  1.70000000E+00
  1.70000000E+00  1.70000000E+00  1.30000000E+00  1.70000000E+00  1.70000000E+00
  1.30000000E+00  1.30000000E+00  1.70000000E+00  1.70000000E+00  1.70000000E+00
  1.30000000E+00  1.70000000E+00  1.70000000E+00  1.70000000E+00  1.30000000E+00
  1.70000000E+00  1.30000000E+00  1.30000000E+00  1.30000000E+00  1.70000000E+00
  1.70000000E+00  1.30000000E+00  1.70000000E+00  1.70000000E+00  1.30000000E+00
  1.70000000E+00  1.30000000E+00  1.30000000E+00  1.30000000E+00  1.70000000E+00
  1.70000000E+00  1.70000000E+00  1.70000000E+00  1.70000000E+00  1.30000000E+00
  1.70000000E+00  1.70000000E+00  1.70000000E+00  1.30000000E+00  1.70000000E+00
  1.70000000E+00  1.30000000E+00  1.30000000E+00  1.70000000E+00  1.70000000E+00
  1.70000000E+00  1.30000000E+00  1.70000000E+00  1.70000000E+00  1.70000000E+00
  1.30000000E+00  1.70000000E+00  1.30000000E+00  1.30000000E+00  1.30000000E+00
  1.70000000E+00  1.70000000E+00  1.30000000E+00  1.70000000E+00  1.70000000E+00
  1.30000000E+00  1.70000000E+00  1.30000000E+00  1.30000000E+00  1.30000000E+00
  1.70000000E+00  1.70000000E+00  1.70000000E+00  1.70000000E+00  1.70000000E+00
  1.30000000E+00  1.70000000E+00  1.70000000E+00  1.70000000E+00  1.30000000E+00
  1.70000000E+00  1.70000000E+00  1.30000000E+00  1.30000000E+00  1.70000000E+00
  1.70000000E+00  1.70000000E+00  1.30000000E+00  1.70000000E+00  1.70000000E+00
  1.70000000E+00  1.30000000E+00  1.70000000E+00  1.30000000E+00  1.30000000E+00
  1.30000000E+00  1.70000000E+00  1.70000000E+00  1.30000000E+00  1.70000000E+00
  1.70000000E+00  1.30000000E+00  1.70000000E+00  1.30000000E+00  1.30000000E+00
  1.30000000E+00  1.70000000E+00  1.70000000E+00  1.70000000E+00  1.70000000E+00
  1.70000000E+00  1.30000000E+00  1.70000000E+00  1.70000000E+00  1.70000000E+00
  1.30000000E+00  1.70000000E+00  1.70000000E+00  1.30000000E+00  1.30000000E+00
  1.70000000E+00  1.70000000E+00  1.70000000E+00  1.30000000E+00  1.70000000E+00
  1.70000000E+00  1.70000000E+00  1.30000000E+00  1.70000000E+00  1.30000000E+00
  1.30000000E+00  1.30000000E+00  1.70000000E+00  1.70000000E+00  1.30000000E+00
  1.70000000E+00  1.70000000E+00  1.30000000E+00  1.70000000E+00  1.30000000E+00
  1.30000000E+00  1.30000000E+00  1.70000000E+00  1.70000000E+00  1.70000000E+00
  1.70000000E+00  1.70000000E+00  1.30000000E+00  1.70000000E+00  1.70000000E+00
  1.70000000E+00  1.30000000E+00  1.70000000E+00  1.70000000E+00  1.30000000E+00
  1.30000000E+00  1.70000000E+00  1.70000000E+00  1.70000000E+00  1.30000000E+00
  1.70000000E+00  1.70000000E+00  1.70000000E+00  1.30000000E+00  1.70000000E+00
  1.30000000E+00  1.30000000E+00  1.30000000E+00  1.70000000E+00  1.70000000E+00
  1.30000000E+00  1.70000000E+00  1.70000000E+00  1.30000000E+00  1.70000000E+00
  1.30000000E+00  1.30000000E+00  1.30000000E+00  1.70000000E+00  1.70000000E+00
  1.70000000E+00  1.70000000E+00  1.70000000E+00  1.30000000E+00  1.70000000E+00
  1.70000000E+00  1.70000000E+00  1.30000000E+00  1.70000000E+00  1.70000000E+00
  1.30000000E+00  1.30000000E+00  1.70000000E+00  1.70000000E+00  1.70000000E+00
  1.30000000E+00  1.70000000E+00  1.70000000E+00  1.70000000E+00  1.30000000E+00
  1.70000000E+00  1.30000000E+00  1.30000000E+00  1.30000000E+00  1.70000000E+00
  1.70000000E+00  1.30000000E+00  1.70000000E+00  1.70000000E+00  1.30000000E+00
  1.70000000E+00  1.30000000E+00  1.30000000E+00  1.30000000E+00  1.70000000E+00
  1.70000000E+00  1.70000000E+00  1.70000000E+00  1.70000000E+00  1.30000000E+00
  1.70000000E+00  1.70000000E+00  1.70000000E+00  1.30000000E+00  1.70000000E+00
  1.70000000E+00  1.30000000E+00  1.30000000E+00  1.70000000E+00  1.70000000E+00
  1.70000000E+00  1.30000000E+00  1.70000000E+00  1.70000000E+00  1.70000000E+00
  1.30000000E+00  1.70000000E+00  1.30000000E+00  1.30000000E+00  1.30000000E+00
  1.70000000E+00  1.70000000E+00  1.30000000E+00  1.70000000E+00  1.70000000E+00
  1.30000000E+00  1.70000000E+00  1.30000000E+00  1.30000000E+00  1.30000000E+00
  1.70000000E+00  1.70000000E+00  1.70000000E+00  1.70000000E+00  1.70000000E+00
  1.30000000E+00  1.70000000E+00  1.70000000E+00  1.70000000E+00  1.30000000E+00
  1.70000000E+00  1.70000000E+00  1.30000000E+00  1.30000000E+00  1.70000000E+00
  1.70000000E+00  1.70000000E+00  1.30000000E+00  1.70000000E+00  1.70000000E+00
  1.70000000E+00  1.30000000E+00  1.70000000E+00  1.30000000E+00  1.30000000E+00
  1.30000000E+00  1.70000000E+00  1.70000000E+00  1.30000000E+00  1.70000000E+00
  1.70000000E+00  1.30000000E+00  1.70000000E+00  1.30000000E+00  1.30000000E+00
  1.30000000E+00  1.70000000E+00  1.70000000E+00  1.70000000E+00  1.70000000E+00
  1.70000000E+00  1.30000000E+00  1.70000000E+00  1.70000000E+00  1.70000000E+00
  1.30000000E+00  1.70000000E+00  1.70000000E+00  1.30000000E+00  1.30000000E+00
  1.70000000E+00  1.70000000E+00  1.70000000E+00  1.30000000E+00  1.70000000E+00
  1.70000000E+00  1.70000000E+00  1.30000000E+00  1.70000000E+00  1.30000000E+00
  1.30000000E+00  1.30000000E+00  1.70000000E+00  1.70000000E+00  1.30000000E+00
  1.70000000E+00  1.70000000E+00  1.30000000E+00  1.70000000E+00  1.30000000E+00
  1.30000000E+00  1.30000000E+00  1.70000000E+00  1.70000000E+00  1.70000000E+00
  1.70000000E+00  1.70000000E+00  1.30000000E+00  1.70000000E+00  1.70000000E+00
  1.70000000E+00  1.30000000E+00  1.70000000E+00  1.70000000E+00  1.30000000E+00
  1.30000000E+00  1.70000000E+00  1.70000000E+00  1.70000000E+00  1.30000000E+00
  1.70000000E+00  1.70000000E+00  1.70000000E+00  1.30000000E+00  1.70000000E+00
  1.30000000E+00  1.30000000E+00  1.30000000E+00  1.70000000E+00  1.70000000E+00
  1.30000000E+00  1.70000000E+00  1.70000000E+00  1.30000000E+00  1.70000000E+00
  1.30000000E+00  1.30000000E+00  1.30000000E+00  1.70000000E+00  1.70000000E+00
  1.70000000E+00  1.70000000E+00  1.70000000E+00  1.30000000E+00  1.70000000E+00
  1.70000000E+00  1.70000000E+00  1.30000000E+00  1.70000000E+00  1.70000000E+00
  1.30000000E+00  1.30000000E+00  1.70000000E+00  1.70000000E+00  1.70000000E+00
  1.30000000E+00  1.70000000E+00  1.70000000E+00  1.70000000E+00  1.30000000E+00
  1.70000000E+00  1.30000000E+00  1.30000000E+00  1.30000000E+00  1.70000000E+00
  1.70000000E+00  1.30000000E+00  1.70000000E+00  1.70000000E+00  1.30000000E+00
  1.70000000E+00  1.30000000E+00  1.30000000E+00  1.30000000E+00  1.70000000E+00
  1.70000000E+00  1.70000000E+00  1.70000000E+00  1.70000000E+00  1.30000000E+00
  1.70000000E+00  1.70000000E+00  1.70000000E+00  1.30000000E+00  1.70000000E+00
  1.70000000E+00  1.30000000E+00  1.30000000E+00  1.70000000E+00  1.70000000E+00
  1.70000000E+00  1.30000000E+00  1.70000000E+00  1.70000000E+00  1.70000000E+00
  1.30000000E+00  1.70000000E+00  1.30000000E+00  1.30000000E+00  1.30000000E+00
  1.70000000E+00  1.70000000E+00  1.30000000E+00  1.70000000E+00  1.70000000E+00
  1.30000000E+00  1.70000000E+00  1.30000000E+00  1.30000000E+00  1.30000000E+00
  1.70000000E+00  1.70000000E+00  1.70000000E+00  1.70000000E+00  1.70000000E+00
  1.30000000E+00  1.70000000E+00  1.70000000E+00  1.70000000E+00  1.30000000E+00
  1.70000000E+00  1.70000000E+00  1.30000000E+00  1.30000000E+00  1.70000000E+00
  1.70000000E+00  1.70000000E+00  1.30000000E+00  1.70000000E+00  1.70000000E+00
  1.70000000E+00  1.30000000E+00  1.70000000E+00  1.30000000E+00  1.30000000E+00
  1.30000000E+00  1.70000000E+00  1.70000000E+00  1.30000000E+00  1.70000000E+00
  1.70000000E+00  1.30000000E+00  1.70000000E+00  1.30000000E+00  1.30000000E+00
  1.30000000E+00  1.70000000E+00  1.70000000E+00  1.70000000E+00  1.70000000E+00
  1.70000000E+00  1.30000000E+00  1.70000000E+00  1.70000000E+00  1.70000000E+00
  1.30000000E+00  1.70000000E+00  1.70000000E+00  1.30000000E+00  1.30000000E+00
  1.70000000E+00  1.70000000E+00  1.70000000E+00  1.30000000E+00  1.70000000E+00
  1.70000000E+00  1.70000000E+00  1.30000000E+00  1.70000000E+00  1.30000000E+00
  1.30000000E+00  1.30000000E+00  1.70000000E+00  1.70000000E+00  1.30000000E+00
  1.70000000E+00  1.70000000E+00  1.30000000E+00  1.70000000E+00  1.30000000E+00
  1.30000000E+00  1.30000000E+00  1.70000000E+00  1.70000000E+00  1.70000000E+00
  1.70000000E+00  1.70000000E+00  1.30000000E+00  1.70000000E+00  1.70000000E+00
  1.70000000E+00  1.30000000E+00  1.70000000E+00  1.70000000E+00  1.30000000E+00
  1.30000000E+00  1.70000000E+00  1.70000000E+00  1.70000000E+00  1.30000000E+00
  1.70000000E+00  1.70000000E+00  1.70000000E+00  1.30000000E+00  1.70000000E+00
  1.30000000E+00  1.30000000E+00  1.30000000E+00  1.70000000E+00  1.70000000E+00
  1.30000000E+00  1.70000000E+00  1.70000000E+00  1.30000000E+00  1.70000000E+00
  1.30000000E+00  1.30000000E+00  1.30000000E+00  1.70000000E+00  1.70000000E+00
  1.70000000E+00  1.70000000E+00  1.70000000E+00  1.30000000E+00  1.70000000E+00
  1.70000000E+00  1.70000000E+00  1.30000000E+00  1.70000000E+00  1.70000000E+00
  1.30000000E+00  1.30000000E+00  1.70000000E+00  1.70000000E+00  1.70000000E+00
  1.30000000E+00  1.70000000E+00  1.70000000E+00  1.70000000E+00  1.30000000E+00
  1.70000000E+00  1.30000000E+00  1.30000000E+00  1.30000000E+00  1.70000000E+00
  1.70000000E+00  1.30000000E+00  1.70000000E+00  1.70000000E+00  1.30000000E+00
  1.70000000E+00  1.30000000E+00  1.30000000E+00  1.30000000E+00  1.70000000E+00
  1.70000000E+00  1.70000000E+00  1.70000000E+00  1.70000000E+00  1.30000000E+00
  1.70000000E+00  1.70000000E+00  1.70000000E+00  1.30000000E+00  1.70000000E+00
  1.70000000E+00  1.30000000E+00  1.30000000E+00  1.70000000E+00  1.70000000E+00
  1.70000000E+00  1.30000000E+00  1.70000000E+00  1.70000000E+00  1.70000000E+00
  1.30000000E+00  1.70000000E+00  1.30000000E+00  1.30000000E+00  1.30000000E+00
  1.70000000E+00  1.70000000E+00  1.30000000E+00  1.70000000E+00  1.70000000E+00
  1.30000000E+00  1.70000000E+00  1.30000000E+00  1.30000000E+00  1.30000000E+00
  1.70000000E+00  1.70000000E+00  1.70000000E+00  1.70000000E+00  1.70000000E+00
  1.30000000E+00  1.70000000E+00  1.70000000E+00  1.70000000E+00  1.30000000E+00
  1.70000000E+00  1.70000000E+00  1.30000000E+00  1.30000000E+00  1.70000000E+00
  1.70000000E+00  1.70000000E+00  1.30000000E+00  1.70000000E+00  1.70000000E+00
  1.70000000E+00  1.30000000E+00  1.70000000E+00  1.30000000E+00  1.30000000E+00
  1.30000000E+00  1.70000000E+00  1.70000000E+00  1.30000000E+00  1.70000000E+00
  1.70000000E+00  1.30000000E+00  1.70000000E+00  1.30000000E+00  1.30000000E+00
  1.30000000E+00  1.70000000E+00  1.70000000E+00  1.70000000E+00  1.70000000E+00
  1.70000000E+00  1.30000000E+00  1.70000000E+00  1.70000000E+00  1.70000000E+00
  1.30000000E+00  1.70000000E+00  1.70000000E+00  1.30000000E+00  1.30000000E+00
  1.70000000E+00  1.70000000E+00  1.70000000E+00  1.30000000E+00  1.70000000E+00
  1.70000000E+00  1.70000000E+00  1.30000000E+00  1.70000000E+00  1.30000000E+00
  1.30000000E+00  1.30000000E+00  1.70000000E+00  1.70000000E+00  1.30000000E+00
  1.70000000E+00  1.70000000E+00  1.30000000E+00  1.70000000E+00  1.30000000E+00
  1.30000000E+00  1.30000000E+00  1.70000000E+00  1.70000000E+00  1.70000000E+00
  1.70000000E+00  1.70000000E+00  1.30000000E+00  1.70000000E+00  1.70000000E+00
  1.70000000E+00  1.30000000E+00  1.70000000E+00  1.70000000E+00  1.30000000E+00
  1.30000000E+00  1.70000000E+00  1.70000000E+00  1.70000000E+00  1.30000000E+00
  1.70000000E+00  1.70000000E+00  1.70000000E+00  1.30000000E+00  1.70000000E+00
  1.30000000E+00  1.30000000E+00  1.30000000E+00  1.70000000E+00  1.70000000E+00
  1.30000000E+00  1.70000000E+00  1.70000000E+00  1.30000000E+00  1.70000000E+00
  1.30000000E+00  1.30000000E+00  1.30000000E+00  1.70000000E+00  1.70000000E+00
  1.70000000E+00  1.70000000E+00  1.70000000E+00  1.30000000E+00  1.70000000E+00
  1.70000000E+00  1.70000000E+00  1.30000000E+00  1.70000000E+00  1.70000000E+00
  1.30000000E+00  1.30000000E+00  1.70000000E+00  1.70000000E+00  1.70000000E+00
  1.30000000E+00  1.70000000E+00  1.70000000E+00  1.70000000E+00  1.30000000E+00
  1.70000000E+00  1.30000000E+00  1.30000000E+00  1.30000000E+00  1.70000000E+00
  1.70000000E+00  1.30000000E+00  1.70000000E+00  1.70000000E+00  1.30000000E+00
  1.70000000E+00  1.30000000E+00  1.30000000E+00  1.30000000E+00  1.70000000E+00
  1.70000000E+00  1.70000000E+00  1.70000000E+00  1.70000000E+00  1.30000000E+00
  1.70000000E+00  1.70000000E+00  1.70000000E+00  1.30000000E+00  1.70000000E+00
  1.70000000E+00  1.30000000E+00  1.30000000E+00  1.70000000E+00  1.70000000E+00
  1.70000000E+00  1.30000000E+00  1.70000000E+00  1.70000000E+00  1.70000000E+00
  1.30000000E+00  1.70000000E+00  1.30000000E+00  1.30000000E+00  1.30000000E+00
  1.70000000E+00  1.70000000E+00  1.30000000E+00  1.70000000E+00  1.70000000E+00
  1.30000000E+00  1.70000000E+00  1.30000000E+00  1.30000000E+00  1.30000000E+00
  1.70000000E+00  1.70000000E+00  1.70000000E+00  1.70000000E+00  1.70000000E+00
  1.30000000E+00  1.70000000E+00  1.70000000E+00  1.70000000E+00  1.30000000E+00
  1.70000000E+00  1.70000000E+00  1.30000000E+00  1.30000000E+00  1.70000000E+00
  1.70000000E+00  1.70000000E+00  1.30000000E+00  1.70000000E+00  1.70000000E+00
  1.70000000E+00  1.30000000E+00  1.70000000E+00  1.30000000E+00  1.30000000E+00
  1.30000000E+00  1.70000000E+00  1.70000000E+00  1.30000000E+00  1.70000000E+00
  1.70000000E+00  1.30000000E+00  1.70000000E+00  1.30000000E+00  1.30000000E+00
  1.30000000E+00  1.70000000E+00  1.70000000E+00  1.70000000E+00  1.70000000E+00
  1.70000000E+00  1.30000000E+00  1.70000000E+00  1.70000000E+00  1.70000000E+00
  1.30000000E+00  1.70000000E+00  1.70000000E+00  1.30000000E+00  1.30000000E+00
  1.70000000E+00  1.70000000E+00  1.70000000E+00  1.30000000E+00  1.70000000E+00
  1.70000000E+00  1.70000000E+00  1.30000000E+00  1.70000000E+00  1.30000000E+00
  1.30000000E+00  1.30000000E+00  1.70000000E+00  1.70000000E+00  1.30000000E+00
  1.70000000E+00  1.70000000E+00  1.30000000E+00  1.70000000E+00  1.30000000E+00
  1.30000000E+00  1.30000000E+00  1.70000000E+00  1.70000000E+00  1.70000000E+00
  1.70000000E+00  1.70000000E+00  1.30000000E+00  1.70000000E+00  1.70000000E+00
  1.70000000E+00  1.30000000E+00  1.70000000E+00  1.70000000E+00  1.30000000E+00
  1.30000000E+00  1.70000000E+00  1.70000000E+00  1.70000000E+00  1.30000000E+00
  1.70000000E+00  1.70000000E+00  1.70000000E+00  1.30000000E+00  1.70000000E+00
  1.30000000E+00  1.30000000E+00  1.30000000E+00  1.70000000E+00  1.70000000E+00
  1.30000000E+00  1.70000000E+00  1.70000000E+00  1.30000000E+00  1.70000000E+00
  1.30000000E+00  1.30000000E+00  1.30000000E+00  1.70000000E+00  1.70000000E+00
  1.70000000E+00  1.70000000E+00  1.70000000E+00  1.30000000E+00  1.70000000E+00
  1.70000000E+00  1.70000000E+00  1.30000000E+00  1.70000000E+00  1.70000000E+00
  1.30000000E+00  1.30000000E+00  1.70000000E+00  1.70000000E+00  1.70000000E+00
  1.30000000E+00  1.70000000E+00  1.70000000E+00  1.70000000E+00  1.30000000E+00
  1.70000000E+00  1.30000000E+00  1.30000000E+00  1.30000000E+00  1.70000000E+00
  1.70000000E+00  1.30000000E+00  1.70000000E+00  1.70000000E+00  1.30000000E+00
  1.70000000E+00  1.30000000E+00  1.30000000E+00  1.30000000E+00  1.70000000E+00
  1.70000000E+00  1.70000000E+00  1.70000000E+00  1.70000000E+00  1.30000000E+00
  1.70000000E+00  1.70000000E+00  1.70000000E+00  1.30000000E+00  1.70000000E+00
  1.70000000E+00  1.30000000E+00  1.30000000E+00  1.70000000E+00  1.70000000E+00
  1.70000000E+00  1.30000000E+00  1.70000000E+00  1.70000000E+00  1.70000000E+00
  1.30000000E+00  1.70000000E+00  1.30000000E+00  1.30000000E+00  1.30000000E+00
  1.70000000E+00  1.70000000E+00  1.30000000E+00  1.70000000E+00  1.70000000E+00
  1.30000000E+00  1.70000000E+00  1.30000000E+00  1.30000000E+00  1.30000000E+00
  1.70000000E+00  1.70000000E+00  1.70000000E+00  1.70000000E+00  1.70000000E+00
  1.30000000E+00  1.70000000E+00  1.70000000E+00  1.70000000E+00  1.30000000E+00
  1.70000000E+00  1.70000000E+00  1.30000000E+00  1.30000000E+00  1.70000000E+00
  1.70000000E+00  1.70000000E+00  1.30000000E+00  1.70000000E+00  1.70000000E+00
  1.70000000E+00  1.30000000E+00  1.70000000E+00  1.30000000E+00  1.30000000E+00
  1.30000000E+00  1.70000000E+00  1.70000000E+00  1.30000000E+00  1.70000000E+00
  1.70000000E+00  1.30000000E+00  1.70000000E+00  1.30000000E+00  1.30000000E+00
  1.30000000E+00  1.70000000E+00  1.70000000E+00  1.70000000E+00  1.70000000E+00
  1.70000000E+00  1.30000000E+00  1.70000000E+00  1.70000000E+00  1.70000000E+00
  1.30000000E+00  1.70000000E+00  1.70000000E+00  1.30000000E+00  1.30000000E+00
  1.70000000E+00  1.70000000E+00  1.70000000E+00  1.30000000E+00  1.70000000E+00
  1.70000000E+00  1.70000000E+00  1.30000000E+00  1.70000000E+00  1.30000000E+00
  1.30000000E+00  1.30000000E+00  1.70000000E+00  1.70000000E+00  1.30000000E+00
  1.70000000E+00  1.70000000E+00  1.30000000E+00  1.70000000E+00  1.30000000E+00
  1.30000000E+00  1.30000000E+00  1.70000000E+00  1.70000000E+00  1.70000000E+00
  1.70000000E+00  1.70000000E+00  1.30000000E+00  1.70000000E+00  1.70000000E+00
  1.70000000E+00  1.30000000E+00  1.70000000E+00  1.70000000E+00  1.30000000E+00
  1.30000000E+00  1.70000000E+00  1.70000000E+00  1.70000000E+00  1.30000000E+00
  1.70000000E+00  1.70000000E+00  1.70000000E+00  1.30000000E+00  1.70000000E+00
  1.30000000E+00  1.30000000E+00  1.30000000E+00  1.70000000E+00  1.70000000E+00
  1.30000000E+00  1.70000000E+00  1.70000000E+00  1.30000000E+00  1.70000000E+00
  1.30000000E+00  1.30000000E+00  1.30000000E+00  1.70000000E+00  1.70000000E+00
  1.70000000E+00  1.70000000E+00  1.70000000E+00  1.30000000E+00  1.70000000E+00
  1.70000000E+00  1.70000000E+00  1.30000000E+00  1.70000000E+00  1.70000000E+00
  1.30000000E+00  1.30000000E+00  1.70000000E+00  1.70000000E+00  1.70000000E+00
  1.30000000E+00  1.70000000E+00  1.70000000E+00  1.70000000E+00  1.30000000E+00
  1.70000000E+00  1.30000000E+00  1.30000000E+00  1.30000000E+00  1.70000000E+00
  1.70000000E+00  1.30000000E+00  1.70000000E+00  1.70000000E+00  1.30000000E+00
  1.70000000E+00  1.30000000E+00  1.30000000E+00  1.30000000E+00  1.70000000E+00
  1.70000000E+00  1.70000000E+00  1.70000000E+00  1.70000000E+00  1.30000000E+00
  1.70000000E+00  1.70000000E+00  1.70000000E+00  1.30000000E+00  1.70000000E+00
  1.70000000E+00  1.30000000E+00  1.30000000E+00  1.70000000E+00  1.70000000E+00
  1.70000000E+00  1.30000000E+00  1.70000000E+00  1.70000000E+00  1.70000000E+00
  1.30000000E+00  1.70000000E+00  1.30000000E+00  1.30000000E+00  1.30000000E+00
  1.70000000E+00  1.70000000E+00  1.30000000E+00  1.70000000E+00  1.70000000E+00
  1.30000000E+00  1.70000000E+00  1.30000000E+00  1.30000000E+00  1.30000000E+00
  1.70000000E+00  1.70000000E+00  1.70000000E+00  1.70000000E+00  1.70000000E+00
  1.30000000E+00  1.70000000E+00  1.70000000E+00  1.70000000E+00  1.30000000E+00
  1.70000000E+00  1.70000000E+00  1.30000000E+00  1.30000000E+00  1.70000000E+00
  1.70000000E+00  1.70000000E+00  1.30000000E+00  1.70000000E+00  1.70000000E+00
  1.70000000E+00  1.30000000E+00  1.70000000E+00  1.30000000E+00  1.30000000E+00
  1.30000000E+00  1.70000000E+00  1.70000000E+00  1.30000000E+00  1.70000000E+00
  1.70000000E+00  1.30000000E+00  1.70000000E+00  1.30000000E+00  1.30000000E+00
  1.30000000E+00  1.70000000E+00  1.70000000E+00  1.70000000E+00  1.70000000E+00
  1.70000000E+00  1.30000000E+00  1.70000000E+00  1.70000000E+00  1.70000000E+00
  1.30000000E+00  1.70000000E+00  1.70000000E+00  1.30000000E+00  1.30000000E+00
  1.70000000E+00  1.70000000E+00  1.70000000E+00  1.30000000E+00  1.70000000E+00
  1.70000000E+00  1.70000000E+00  1.30000000E+00  1.70000000E+00  1.30000000E+00
  1.30000000E+00  1.30000000E+00  1.70000000E+00  1.70000000E+00  1.30000000E+00
  1.70000000E+00  1.70000000E+00  1.30000000E+00  1.70000000E+00  1.30000000E+00
  1.30000000E+00  1.30000000E+00  1.70000000E+00  1.70000000E+00  1.70000000E+00
  1.70000000E+00  1.70000000E+00  1.30000000E+00  1.70000000E+00  1.70000000E+00
  1.70000000E+00  1.30000000E+00  1.70000000E+00  1.70000000E+00  1.30000000E+00
  1.30000000E+00  1.70000000E+00  1.70000000E+00  1.70000000E+00  1.30000000E+00
  1.70000000E+00  1.70000000E+00  1.70000000E+00  1.30000000E+00  1.70000000E+00
  1.30000000E+00  1.30000000E+00  1.30000000E+00  1.70000000E+00  1.70000000E+00
  1.30000000E+00  1.70000000E+00  1.70000000E+00  1.30000000E+00  1.70000000E+00
  1.30000000E+00  1.30000000E+00  1.30000000E+00  1.70000000E+00  1.70000000E+00
  1.70000000E+00  1.70000000E+00  1.70000000E+00  1.30000000E+00  1.70000000E+00
  1.70000000E+00  1.70000000E+00  1.30000000E+00  1.70000000E+00  1.70000000E+00
  1.30000000E+00  1.30000000E+00  1.70000000E+00  1.70000000E+00  1.70000000E+00
  1.30000000E+00  1.70000000E+00  1.70000000E+00  1.70000000E+00  1.30000000E+00
  1.70000000E+00  1.30000000E+00  1.30000000E+00  1.30000000E+00  1.70000000E+00
  1.70000000E+00  1.30000000E+00  1.70000000E+00  1.70000000E+00  1.30000000E+00
  1.70000000E+00  1.30000000E+00  1.30000000E+00  1.30000000E+00  1.70000000E+00
  1.70000000E+00  1.70000000E+00  1.70000000E+00  1.70000000E+00  1.30000000E+00
  1.70000000E+00  1.70000000E+00  1.70000000E+00  1.30000000E+00  1.70000000E+00
  1.70000000E+00  1.30000000E+00  1.30000000E+00  1.70000000E+00  1.70000000E+00
  1.70000000E+00  1.30000000E+00  1.70000000E+00  1.70000000E+00  1.70000000E+00
  1.30000000E+00  1.70000000E+00  1.30000000E+00  1.30000000E+00  1.30000000E+00
  1.70000000E+00  1.70000000E+00  1.30000000E+00  1.70000000E+00  1.70000000E+00
  1.30000000E+00  1.70000000E+00  1.30000000E+00  1.30000000E+00  1.30000000E+00
  1.70000000E+00  1.70000000E+00  1.70000000E+00  1.70000000E+00  1.70000000E+00
  1.30000000E+00  1.70000000E+00  1.70000000E+00  1.70000000E+00  1.30000000E+00
  1.70000000E+00  1.70000000E+00  1.30000000E+00  1.30000000E+00  1.70000000E+00
  1.70000000E+00  1.70000000E+00  1.30000000E+00  1.70000000E+00  1.70000000E+00
  1.70000000E+00  1.30000000E+00  1.70000000E+00  1.30000000E+00  1.30000000E+00
  1.30000000E+00  1.70000000E+00  1.70000000E+00  1.30000000E+00  1.70000000E+00
  1.70000000E+00  1.30000000E+00  1.70000000E+00  1.30000000E+00  1.30000000E+00
  1.30000000E+00  1.70000000E+00  1.70000000E+00  1.70000000E+00  1.70000000E+00
  1.70000000E+00  1.30000000E+00  1.70000000E+00  1.70000000E+00  1.70000000E+00
  1.30000000E+00  1.70000000E+00  1.70000000E+00  1.30000000E+00  1.30000000E+00
  1.70000000E+00  1.70000000E+00  1.70000000E+00  1.30000000E+00  1.70000000E+00
  1.70000000E+00  1.70000000E+00  1.30000000E+00  1.70000000E+00  1.30000000E+00
  1.30000000E+00  1.30000000E+00  1.70000000E+00  1.70000000E+00  1.30000000E+00
  1.70000000E+00  1.70000000E+00  1.30000000E+00  1.70000000E+00  1.30000000E+00
  1.30000000E+00  1.30000000E+00  1.70000000E+00  1.70000000E+00  1.70000000E+00
  1.70000000E+00  1.70000000E+00  1.30000000E+00  1.70000000E+00  1.70000000E+00
  1.70000000E+00  1.30000000E+00  1.70000000E+00  1.70000000E+00  1.30000000E+00
  1.30000000E+00  1.70000000E+00  1.70000000E+00  1.70000000E+00  1.30000000E+00
  1.70000000E+00  1.70000000E+00  1.70000000E+00  1.30000000E+00  1.70000000E+00
  1.30000000E+00  1.30000000E+00  1.30000000E+00  1.70000000E+00  1.70000000E+00
  1.30000000E+00  1.70000000E+00  1.70000000E+00  1.30000000E+00  1.70000000E+00
  1.30000000E+00  1.30000000E+00  1.30000000E+00  1.70000000E+00  1.70000000E+00
  1.70000000E+00  1.70000000E+00  1.70000000E+00  1.30000000E+00  1.70000000E+00
  1.70000000E+00  1.70000000E+00  1.30000000E+00  1.70000000E+00  1.70000000E+00
  1.30000000E+00  1.30000000E+00  1.70000000E+00  1.70000000E+00  1.70000000E+00
  1.30000000E+00  1.70000000E+00  1.70000000E+00  1.70000000E+00  1.30000000E+00
  1.70000000E+00  1.30000000E+00  1.30000000E+00  1.30000000E+00  1.70000000E+00
  1.70000000E+00  1.30000000E+00  1.70000000E+00  1.70000000E+00  1.30000000E+00
  1.70000000E+00  1.30000000E+00  1.30000000E+00  1.30000000E+00  1.70000000E+00
  1.70000000E+00  1.70000000E+00  1.70000000E+00  1.70000000E+00  1.30000000E+00
  1.70000000E+00  1.70000000E+00  1.70000000E+00  1.30000000E+00  1.70000000E+00
  1.70000000E+00  1.30000000E+00  1.30000000E+00  1.70000000E+00  1.70000000E+00
  1.70000000E+00  1.30000000E+00  1.70000000E+00  1.70000000E+00  1.70000000E+00
  1.30000000E+00  1.70000000E+00  1.30000000E+00  1.30000000E+00  1.30000000E+00
  1.70000000E+00  1.70000000E+00  1.30000000E+00  1.70000000E+00  1.70000000E+00
  1.30000000E+00  1.70000000E+00  1.30000000E+00  1.30000000E+00  1.30000000E+00
  1.70000000E+00  1.70000000E+00  1.70000000E+00  1.70000000E+00  1.70000000E+00
  1.30000000E+00  1.70000000E+00  1.70000000E+00  1.70000000E+00  1.30000000E+00
  1.70000000E+00  1.70000000E+00  1.30000000E+00  1.30000000E+00  1.70000000E+00
  1.70000000E+00  1.70000000E+00  1.30000000E+00  1.70000000E+00  1.70000000E+00
  1.70000000E+00  1.30000000E+00  1.70000000E+00  1.30000000E+00  1.30000000E+00
  1.30000000E+00  1.70000000E+00  1.70000000E+00  1.30000000E+00  1.70000000E+00
  1.70000000E+00  1.30000000E+00  1.70000000E+00  1.30000000E+00  1.30000000E+00
  1.30000000E+00  1.70000000E+00  1.70000000E+00  1.70000000E+00  1.70000000E+00
  1.70000000E+00  1.30000000E+00  1.70000000E+00  1.70000000E+00  1.70000000E+00
  1.30000000E+00  1.70000000E+00  1.70000000E+00  1.30000000E+00  1.30000000E+00
  1.70000000E+00  1.70000000E+00  1.70000000E+00  1.30000000E+00  1.70000000E+00
  1.70000000E+00  1.70000000E+00  1.30000000E+00  1.70000000E+00  1.30000000E+00
  1.30000000E+00  1.30000000E+00  1.70000000E+00  1.70000000E+00  1.30000000E+00
  1.70000000E+00  1.70000000E+00  1.30000000E+00  1.70000000E+00  1.30000000E+00
  1.30000000E+00  1.30000000E+00  1.70000000E+00  1.70000000E+00  1.70000000E+00
  1.70000000E+00  1.70000000E+00  1.30000000E+00  1.70000000E+00  1.70000000E+00
  1.70000000E+00  1.30000000E+00  1.70000000E+00  1.70000000E+00  1.30000000E+00
  1.30000000E+00  1.70000000E+00  1.70000000E+00  1.70000000E+00  1.30000000E+00
  1.70000000E+00  1.70000000E+00  1.70000000E+00  1.30000000E+00  1.70000000E+00
  1.30000000E+00  1.30000000E+00  1.30000000E+00  1.70000000E+00  1.70000000E+00
  1.30000000E+00  1.70000000E+00  1.70000000E+00  1.30000000E+00  1.70000000E+00
  1.30000000E+00  1.30000000E+00  1.30000000E+00  1.70000000E+00  1.70000000E+00
  1.70000000E+00  1.70000000E+00  1.70000000E+00  1.30000000E+00  1.70000000E+00
  1.70000000E+00  1.70000000E+00  1.30000000E+00  1.70000000E+00  1.70000000E+00
  1.30000000E+00  1.30000000E+00  1.70000000E+00  1.70000000E+00  1.70000000E+00
  1.30000000E+00  1.70000000E+00  1.70000000E+00  1.70000000E+00  1.30000000E+00
  1.70000000E+00  1.30000000E+00  1.30000000E+00  1.30000000E+00  1.70000000E+00
  1.70000000E+00  1.30000000E+00  1.70000000E+00  1.70000000E+00  1.30000000E+00
  1.70000000E+00  1.30000000E+00  1.30000000E+00  1.30000000E+00  1.70000000E+00
  1.70000000E+00  1.70000000E+00  1.70000000E+00  1.70000000E+00  1.30000000E+00
  1.70000000E+00  1.70000000E+00  1.70000000E+00  1.30000000E+00  1.70000000E+00
  1.70000000E+00  1.30000000E+00  1.30000000E+00  1.70000000E+00  1.70000000E+00
  1.70000000E+00  1.30000000E+00  1.70000000E+00  1.70000000E+00  1.70000000E+00
  1.30000000E+00  1.70000000E+00  1.30000000E+00  1.30000000E+00  1.30000000E+00
  1.70000000E+00  1.70000000E+00  1.30000000E+00  1.70000000E+00  1.70000000E+00
  1.30000000E+00  1.70000000E+00  1.30000000E+00  1.30000000E+00  1.30000000E+00
  1.70000000E+00  1.70000000E+00  1.70000000E+00  1.70000000E+00  1.70000000E+00
  1.30000000E+00  1.70000000E+00  1.70000000E+00  1.70000000E+00  1.30000000E+00
  1.70000000E+00  1.70000000E+00  1.30000000E+00  1.30000000E+00  1.70000000E+00
  1.70000000E+00  1.70000000E+00  1.30000000E+00  1.70000000E+00  1.70000000E+00
  1.70000000E+00  1.30000000E+00  1.70000000E+00  1.30000000E+00  1.30000000E+00
  1.30000000E+00  1.70000000E+00  1.70000000E+00  1.30000000E+00  1.70000000E+00
  1.70000000E+00  1.30000000E+00  1.70000000E+00  1.30000000E+00  1.30000000E+00
  1.30000000E+00  1.70000000E+00  1.70000000E+00  1.70000000E+00  1.70000000E+00
  1.70000000E+00  1.30000000E+00  1.70000000E+00  1.70000000E+00  1.70000000E+00
  1.30000000E+00  1.70000000E+00  1.70000000E+00  1.30000000E+00  1.30000000E+00
  1.70000000E+00  1.70000000E+00  1.70000000E+00  1.30000000E+00  1.70000000E+00
  1.70000000E+00  1.70000000E+00  1.30000000E+00  1.70000000E+00  1.30000000E+00
  1.30000000E+00  1.30000000E+00  1.70000000E+00  1.70000000E+00  1.30000000E+00
  1.70000000E+00  1.70000000E+00  1.30000000E+00  1.70000000E+00  1.30000000E+00
  1.30000000E+00  1.30000000E+00  1.70000000E+00  1.70000000E+00  1.70000000E+00
  1.70000000E+00  1.70000000E+00  1.30000000E+00  1.70000000E+00  1.70000000E+00
  1.70000000E+00  1.30000000E+00  1.70000000E+00  1.70000000E+00  1.30000000E+00
  1.30000000E+00  1.70000000E+00  1.70000000E+00  1.70000000E+00  1.30000000E+00
  1.70000000E+00  1.70000000E+00  1.70000000E+00  1.30000000E+00  1.70000000E+00
  1.30000000E+00  1.30000000E+00  1.30000000E+00  1.70000000E+00  1.70000000E+00
  1.30000000E+00  1.70000000E+00  1.70000000E+00  1.30000000E+00  1.70000000E+00
  1.30000000E+00  1.30000000E+00  1.30000000E+00  1.70000000E+00  1.70000000E+00
  1.70000000E+00  1.70000000E+00  1.70000000E+00  1.30000000E+00  1.70000000E+00
  1.70000000E+00  1.70000000E+00  1.30000000E+00  1.70000000E+00  1.70000000E+00
  1.30000000E+00  1.30000000E+00  1.70000000E+00  1.70000000E+00  1.70000000E+00
  1.30000000E+00  1.70000000E+00  1.70000000E+00  1.70000000E+00  1.30000000E+00
  1.70000000E+00  1.30000000E+00  1.30000000E+00  1.30000000E+00  1.70000000E+00
  1.70000000E+00  1.30000000E+00  1.70000000E+00  1.70000000E+00  1.30000000E+00
  1.70000000E+00  1.30000000E+00  1.30000000E+00  1.30000000E+00  1.70000000E+00
  1.70000000E+00  1.70000000E+00  1.70000000E+00  1.70000000E+00  1.30000000E+00
  1.70000000E+00  1.70000000E+00  1.70000000E+00  1.30000000E+00  1.70000000E+00
  1.70000000E+00  1.30000000E+00  1.30000000E+00  1.70000000E+00  1.70000000E+00
  1.70000000E+00  1.30000000E+00  1.70000000E+00  1.70000000E+00  1.70000000E+00
  1.30000000E+00  1.70000000E+00  1.30000000E+00  1.30000000E+00  1.30000000E+00
  1.70000000E+00  1.70000000E+00  1.30000000E+00  1.70000000E+00  1.70000000E+00
  1.30000000E+00  1.70000000E+00  1.30000000E+00  1.30000000E+00  1.30000000E+00
  1.70000000E+00  1.70000000E+00  1.70000000E+00  1.70000000E+00  1.70000000E+00
  1.30000000E+00  1.70000000E+00  1.70000000E+00  1.70000000E+00  1.30000000E+00
  1.70000000E+00  1.70000000E+00  1.30000000E+00  1.30000000E+00  1.70000000E+00
  1.70000000E+00  1.70000000E+00  1.30000000E+00  1.70000000E+00  1.70000000E+00
  1.70000000E+00  1.30000000E+00  1.70000000E+00  1.30000000E+00  1.30000000E+00
  1.30000000E+00  1.70000000E+00  1.70000000E+00  1.30000000E+00  1.70000000E+00
  1.70000000E+00  1.30000000E+00  1.70000000E+00  1.30000000E+00  1.30000000E+00
  1.30000000E+00  1.70000000E+00  1.70000000E+00  1.70000000E+00  1.70000000E+00
  1.70000000E+00  1.30000000E+00  1.70000000E+00  1.70000000E+00  1.70000000E+00
  1.30000000E+00  1.70000000E+00  1.70000000E+00  1.30000000E+00  1.30000000E+00
  1.70000000E+00  1.70000000E+00  1.70000000E+00  1.30000000E+00  1.70000000E+00
  1.70000000E+00  1.70000000E+00  1.30000000E+00  1.70000000E+00  1.30000000E+00
  1.30000000E+00  1.30000000E+00  1.70000000E+00  1.70000000E+00  1.30000000E+00
  1.70000000E+00  1.70000000E+00  1.30000000E+00  1.70000000E+00  1.30000000E+00
  1.30000000E+00  1.30000000E+00  1.70000000E+00  1.70000000E+00  1.70000000E+00
  1.70000000E+00  1.70000000E+00  1.30000000E+00  1.70000000E+00  1.70000000E+00
  1.70000000E+00  1.30000000E+00  1.70000000E+00  1.70000000E+00  1.30000000E+00
  1.30000000E+00  1.70000000E+00  1.70000000E+00  1.70000000E+00  1.30000000E+00
  1.70000000E+00  1.70000000E+00  1.70000000E+00  1.30000000E+00  1.70000000E+00
  1.30000000E+00  1.30000000E+00  1.30000000E+00  1.70000000E+00  1.70000000E+00
  1.30000000E+00  1.70000000E+00  1.70000000E+00  1.30000000E+00  1.70000000E+00
  1.30000000E+00  1.30000000E+00  1.30000000E+00  1.70000000E+00  1.70000000E+00
  1.70000000E+00  1.70000000E+00  1.70000000E+00  1.30000000E+00  1.70000000E+00
  1.70000000E+00  1.70000000E+00  1.30000000E+00  1.70000000E+00  1.70000000E+00
  1.30000000E+00  1.30000000E+00  1.70000000E+00  1.70000000E+00  1.70000000E+00
  1.30000000E+00  1.70000000E+00  1.70000000E+00  1.70000000E+00  1.30000000E+00
  1.70000000E+00  1.30000000E+00  1.30000000E+00  1.30000000E+00  1.70000000E+00
  1.70000000E+00  1.30000000E+00  1.70000000E+00  1.70000000E+00  1.30000000E+00
  1.70000000E+00  1.30000000E+00  1.30000000E+00  1.30000000E+00  1.70000000E+00
  1.70000000E+00  1.70000000E+00  1.70000000E+00  1.70000000E+00  1.30000000E+00
  1.70000000E+00  1.70000000E+00  1.70000000E+00  1.30000000E+00  1.70000000E+00
  1.70000000E+00  1.30000000E+00  1.30000000E+00  1.70000000E+00  1.70000000E+00
  1.70000000E+00  1.30000000E+00  1.70000000E+00  1.70000000E+00  1.70000000E+00
  1.30000000E+00  1.70000000E+00  1.30000000E+00  1.30000000E+00  1.30000000E+00
  1.70000000E+00  1.70000000E+00  1.30000000E+00  1.70000000E+00  1.70000000E+00
  1.30000000E+00  1.70000000E+00  1.30000000E+00  1.30000000E+00  1.30000000E+00
  1.70000000E+00  1.70000000E+00  1.70000000E+00  1.70000000E+00  1.70000000E+00
  1.30000000E+00  1.70000000E+00  1.70000000E+00  1.70000000E+00  1.30000000E+00
  1.70000000E+00  1.70000000E+00  1.30000000E+00  1.30000000E+00  1.70000000E+00
  1.70000000E+00  1.70000000E+00  1.30000000E+00  1.70000000E+00  1.70000000E+00
  1.70000000E+00  1.30000000E+00  1.70000000E+00  1.30000000E+00  1.30000000E+00
  1.30000000E+00  1.70000000E+00  1.70000000E+00  1.30000000E+00  1.70000000E+00
  1.70000000E+00  1.30000000E+00  1.70000000E+00  1.30000000E+00  1.30000000E+00
  1.30000000E+00  1.70000000E+00  1.70000000E+00  1.70000000E+00  1.70000000E+00
  1.70000000E+00  1.30000000E+00  1.70000000E+00  1.70000000E+00  1.70000000E+00
  1.30000000E+00  1.70000000E+00  1.70000000E+00  1.30000000E+00  1.30000000E+00
  1.70000000E+00  1.70000000E+00  1.70000000E+00  1.30000000E+00  1.70000000E+00
  1.70000000E+00  1.70000000E+00  1.30000000E+00  1.70000000E+00  1.30000000E+00
  1.30000000E+00  1.30000000E+00  1.70000000E+00  1.70000000E+00  1.30000000E+00
  1.70000000E+00  1.70000000E+00  1.30000000E+00  1.70000000E+00  1.30000000E+00
  1.30000000E+00  1.30000000E+00  1.70000000E+00  1.70000000E+00  1.70000000E+00
  1.70000000E+00  1.70000000E+00  1.30000000E+00  1.70000000E+00  1.70000000E+00
  1.70000000E+00  1.30000000E+00  1.70000000E+00  1.70000000E+00  1.30000000E+00
  1.30000000E+00  1.70000000E+00  1.70000000E+00  1.70000000E+00  1.30000000E+00
  1.70000000E+00  1.70000000E+00  1.70000000E+00  1.30000000E+00  1.70000000E+00
  1.30000000E+00  1.30000000E+00  1.30000000E+00  1.70000000E+00  1.70000000E+00
  1.30000000E+00  1.70000000E+00  1.70000000E+00  1.30000000E+00  1.70000000E+00
  1.30000000E+00  1.30000000E+00  1.30000000E+00  1.70000000E+00  1.70000000E+00
  1.70000000E+00  1.70000000E+00  1.70000000E+00  1.30000000E+00  1.70000000E+00
  1.70000000E+00  1.70000000E+00  1.30000000E+00  1.70000000E+00  1.70000000E+00
  1.30000000E+00  1.30000000E+00  1.70000000E+00  1.70000000E+00  1.70000000E+00
  1.30000000E+00  1.70000000E+00  1.70000000E+00  1.70000000E+00  1.30000000E+00
  1.70000000E+00  1.30000000E+00  1.30000000E+00  1.30000000E+00  1.70000000E+00
  1.70000000E+00  1.30000000E+00  1.70000000E+00  1.70000000E+00  1.30000000E+00
  1.70000000E+00  1.30000000E+00  1.30000000E+00  1.30000000E+00  1.70000000E+00
  1.70000000E+00  1.70000000E+00  1.70000000E+00  1.70000000E+00  1.30000000E+00
  1.70000000E+00  1.70000000E+00  1.70000000E+00  1.30000000E+00  1.70000000E+00
  1.70000000E+00  1.30000000E+00  1.30000000E+00  1.70000000E+00  1.70000000E+00
  1.70000000E+00  1.30000000E+00  1.70000000E+00  1.70000000E+00  1.70000000E+00
  1.30000000E+00  1.70000000E+00  1.30000000E+00  1.30000000E+00  1.30000000E+00
  1.70000000E+00  1.70000000E+00  1.30000000E+00  1.70000000E+00  1.70000000E+00
  1.30000000E+00  1.70000000E+00  1.30000000E+00  1.30000000E+00  1.30000000E+00
  1.70000000E+00  1.70000000E+00  1.70000000E+00  1.70000000E+00  1.70000000E+00
  1.30000000E+00  1.70000000E+00  1.70000000E+00  1.70000000E+00  1.30000000E+00
  1.70000000E+00  1.70000000E+00  1.30000000E+00  1.30000000E+00  1.70000000E+00
  1.70000000E+00  1.70000000E+00  1.30000000E+00  1.70000000E+00  1.70000000E+00
  1.70000000E+00  1.30000000E+00  1.70000000E+00  1.30000000E+00  1.30000000E+00
  1.30000000E+00  1.70000000E+00  1.70000000E+00  1.30000000E+00  1.70000000E+00
  1.70000000E+00  1.30000000E+00  1.70000000E+00  1.30000000E+00  1.30000000E+00
  1.30000000E+00  1.70000000E+00  1.70000000E+00  1.70000000E+00  1.70000000E+00
  1.70000000E+00  1.30000000E+00  1.70000000E+00  1.70000000E+00  1.70000000E+00
  1.30000000E+00  1.70000000E+00  1.70000000E+00  1.30000000E+00  1.30000000E+00
  1.70000000E+00  1.70000000E+00  1.70000000E+00  1.30000000E+00  1.70000000E+00
  1.70000000E+00  1.70000000E+00  1.30000000E+00  1.70000000E+00  1.30000000E+00
  1.30000000E+00  1.30000000E+00  1.70000000E+00  1.70000000E+00  1.30000000E+00
  1.70000000E+00  1.70000000E+00  1.30000000E+00  1.70000000E+00  1.30000000E+00
  1.30000000E+00  1.30000000E+00  1.70000000E+00  1.70000000E+00  1.70000000E+00
  1.70000000E+00  1.70000000E+00  1.30000000E+00  1.70000000E+00  1.70000000E+00
  1.70000000E+00  1.30000000E+00  1.70000000E+00  1.70000000E+00  1.30000000E+00
  1.30000000E+00  1.70000000E+00  1.70000000E+00  1.70000000E+00  1.30000000E+00
  1.70000000E+00  1.70000000E+00  1.70000000E+00  1.30000000E+00  1.70000000E+00
  1.30000000E+00  1.30000000E+00  1.30000000E+00  1.70000000E+00  1.70000000E+00
  1.30000000E+00  1.70000000E+00  1.70000000E+00  1.30000000E+00  1.70000000E+00
  1.30000000E+00  1.30000000E+00  1.30000000E+00  1.70000000E+00  1.70000000E+00
  1.70000000E+00  1.70000000E+00  1.70000000E+00  1.30000000E+00  1.70000000E+00
  1.70000000E+00  1.70000000E+00  1.30000000E+00  1.70000000E+00  1.70000000E+00
  1.30000000E+00  1.30000000E+00  1.70000000E+00  1.70000000E+00  1.70000000E+00
  1.30000000E+00  1.70000000E+00  1.70000000E+00  1.70000000E+00  1.30000000E+00
  1.70000000E+00  1.30000000E+00  1.30000000E+00  1.30000000E+00  1.70000000E+00
  1.70000000E+00  1.30000000E+00  1.70000000E+00  1.70000000E+00  1.30000000E+00
  1.70000000E+00  1.30000000E+00  1.30000000E+00  1.30000000E+00  1.70000000E+00
  1.70000000E+00  1.70000000E+00  1.70000000E+00  1.70000000E+00  1.30000000E+00
  1.70000000E+00  1.70000000E+00  1.70000000E+00  1.30000000E+00  1.70000000E+00
  1.70000000E+00  1.30000000E+00  1.30000000E+00  1.70000000E+00  1.70000000E+00
  1.70000000E+00  1.30000000E+00  1.70000000E+00  1.70000000E+00  1.70000000E+00
  1.30000000E+00  1.70000000E+00  1.30000000E+00  1.30000000E+00  1.30000000E+00
  1.70000000E+00  1.70000000E+00  1.30000000E+00  1.70000000E+00  1.70000000E+00
  1.30000000E+00  1.70000000E+00  1.30000000E+00  1.30000000E+00  1.30000000E+00
  1.70000000E+00  1.70000000E+00  1.70000000E+00  1.70000000E+00  1.70000000E+00
  1.30000000E+00  1.70000000E+00  1.70000000E+00  1.70000000E+00  1.30000000E+00
  1.70000000E+00  1.70000000E+00  1.30000000E+00  1.30000000E+00  1.70000000E+00
  1.70000000E+00  1.70000000E+00  1.30000000E+00  1.70000000E+00  1.70000000E+00
  1.70000000E+00  1.30000000E+00  1.70000000E+00  1.30000000E+00  1.30000000E+00
  1.30000000E+00  1.70000000E+00  1.70000000E+00  1.30000000E+00  1.70000000E+00
  1.70000000E+00  1.30000000E+00  1.70000000E+00  1.30000000E+00  1.30000000E+00
  1.30000000E+00  1.70000000E+00  1.70000000E+00  1.70000000E+00  1.70000000E+00
  1.70000000E+00  1.30000000E+00  1.70000000E+00  1.70000000E+00  1.70000000E+00
  1.30000000E+00  1.70000000E+00  1.70000000E+00  1.30000000E+00  1.30000000E+00
  1.70000000E+00  1.70000000E+00  1.70000000E+00  1.30000000E+00  1.70000000E+00
  1.70000000E+00  1.70000000E+00  1.30000000E+00  1.70000000E+00  1.30000000E+00
  1.30000000E+00  1.30000000E+00  1.70000000E+00  1.70000000E+00  1.30000000E+00
  1.70000000E+00  1.70000000E+00  1.30000000E+00  1.70000000E+00  1.30000000E+00
  1.30000000E+00  1.30000000E+00  1.70000000E+00  1.70000000E+00  1.70000000E+00
  1.70000000E+00  1.70000000E+00  1.30000000E+00  1.70000000E+00  1.70000000E+00
  1.70000000E+00  1.30000000E+00  1.70000000E+00  1.70000000E+00  1.30000000E+00
  1.30000000E+00  1.70000000E+00  1.70000000E+00  1.70000000E+00  1.30000000E+00
  1.70000000E+00  1.70000000E+00  1.70000000E+00  1.30000000E+00  1.70000000E+00
  1.30000000E+00  1.30000000E+00  1.30000000E+00  1.70000000E+00  1.70000000E+00
  1.30000000E+00  1.70000000E+00  1.70000000E+00  1.30000000E+00  1.70000000E+00
  1.30000000E+00  1.30000000E+00  1.30000000E+00  1.70000000E+00  1.70000000E+00
  1.70000000E+00  1.70000000E+00  1.70000000E+00  1.30000000E+00  1.70000000E+00
  1.70000000E+00  1.70000000E+00  1.30000000E+00  1.70000000E+00  1.70000000E+00
  1.30000000E+00  1.30000000E+00  1.70000000E+00  1.70000000E+00  1.70000000E+00
  1.30000000E+00  1.70000000E+00  1.70000000E+00  1.70000000E+00  1.30000000E+00
  1.70000000E+00  1.30000000E+00  1.30000000E+00  1.30000000E+00  1.70000000E+00
  1.70000000E+00  1.30000000E+00  1.70000000E+00  1.70000000E+00  1.30000000E+00
  1.70000000E+00  1.30000000E+00  1.30000000E+00  1.30000000E+00  1.70000000E+00
  1.70000000E+00  1.70000000E+00  1.70000000E+00  1.70000000E+00  1.30000000E+00
  1.70000000E+00  1.70000000E+00  1.70000000E+00  1.30000000E+00  1.70000000E+00
  1.70000000E+00  1.30000000E+00  1.30000000E+00  1.70000000E+00  1.70000000E+00
  1.70000000E+00  1.30000000E+00  1.70000000E+00  1.70000000E+00  1.70000000E+00
  1.30000000E+00  1.70000000E+00  1.30000000E+00  1.30000000E+00  1.30000000E+00
  1.70000000E+00  1.70000000E+00  1.30000000E+00  1.70000000E+00  1.70000000E+00
  1.30000000E+00  1.70000000E+00  1.30000000E+00  1.30000000E+00  1.30000000E+00
  1.70000000E+00  1.70000000E+00  1.70000000E+00  1.70000000E+00  1.70000000E+00
  1.30000000E+00  1.70000000E+00  1.70000000E+00  1.70000000E+00  1.30000000E+00
  1.70000000E+00  1.70000000E+00  1.30000000E+00  1.30000000E+00  1.70000000E+00
  1.70000000E+00  1.70000000E+00  1.30000000E+00  1.70000000E+00  1.70000000E+00
  1.70000000E+00  1.30000000E+00  1.70000000E+00  1.30000000E+00  1.30000000E+00
  1.30000000E+00  1.70000000E+00  1.70000000E+00  1.30000000E+00  1.70000000E+00
  1.70000000E+00  1.30000000E+00  1.70000000E+00  1.30000000E+00  1.30000000E+00
  1.30000000E+00  1.70000000E+00  1.70000000E+00  1.70000000E+00  1.70000000E+00
  1.70000000E+00  1.30000000E+00  1.70000000E+00  1.70000000E+00  1.70000000E+00
  1.30000000E+00  1.70000000E+00  1.70000000E+00  1.30000000E+00  1.30000000E+00
  1.70000000E+00  1.70000000E+00  1.70000000E+00  1.30000000E+00  1.70000000E+00
  1.70000000E+00  1.70000000E+00  1.30000000E+00  1.70000000E+00  1.30000000E+00
  1.30000000E+00  1.30000000E+00  1.70000000E+00  1.70000000E+00  1.30000000E+00
  1.70000000E+00  1.70000000E+00  1.30000000E+00  1.70000000E+00  1.30000000E+00
  1.30000000E+00  1.30000000E+00  1.70000000E+00  1.70000000E+00  1.70000000E+00
  1.70000000E+00  1.70000000E+00  1.30000000E+00  1.70000000E+00  1.70000000E+00
  1.70000000E+00  1.30000000E+00  1.70000000E+00  1.70000000E+00  1.30000000E+00
  1.30000000E+00  1.70000000E+00  1.70000000E+00  1.70000000E+00  1.30000000E+00
  1.70000000E+00  1.70000000E+00  1.70000000E+00  1.30000000E+00  1.70000000E+00
  1.30000000E+00  1.30000000E+00  1.30000000E+00  1.70000000E+00  1.70000000E+00
  1.30000000E+00  1.70000000E+00  1.70000000E+00  1.30000000E+00  1.70000000E+00
  1.30000000E+00  1.30000000E+00  1.30000000E+00  1.70000000E+00  1.70000000E+00
  1.70000000E+00  1.70000000E+00  1.70000000E+00  1.30000000E+00  1.70000000E+00
  1.70000000E+00  1.70000000E+00  1.30000000E+00  1.70000000E+00  1.70000000E+00
  1.30000000E+00  1.30000000E+00  1.70000000E+00  1.70000000E+00  1.70000000E+00
  1.30000000E+00  1.70000000E+00  1.70000000E+00  1.70000000E+00  1.30000000E+00
  1.70000000E+00  1.30000000E+00  1.30000000E+00  1.30000000E+00  1.70000000E+00
  1.70000000E+00  1.30000000E+00  1.70000000E+00  1.70000000E+00  1.30000000E+00
  1.70000000E+00  1.30000000E+00  1.30000000E+00  1.30000000E+00  1.70000000E+00
  1.70000000E+00  1.70000000E+00  1.70000000E+00  1.70000000E+00  1.30000000E+00
  1.70000000E+00  1.70000000E+00  1.70000000E+00  1.30000000E+00  1.70000000E+00
  1.70000000E+00  1.30000000E+00  1.30000000E+00  1.70000000E+00  1.70000000E+00
  1.70000000E+00  1.30000000E+00  1.70000000E+00  1.70000000E+00  1.70000000E+00
  1.30000000E+00  1.70000000E+00  1.30000000E+00  1.30000000E+00  1.30000000E+00
  1.70000000E+00  1.70000000E+00  1.30000000E+00  1.70000000E+00  1.70000000E+00
  1.30000000E+00  1.70000000E+00  1.30000000E+00  1.30000000E+00  1.30000000E+00
  1.70000000E+00  1.70000000E+00  1.70000000E+00  1.70000000E+00  1.70000000E+00
  1.30000000E+00  1.70000000E+00  1.70000000E+00  1.70000000E+00  1.30000000E+00
  1.70000000E+00  1.70000000E+00  1.30000000E+00  1.30000000E+00  1.70000000E+00
  1.70000000E+00  1.70000000E+00  1.30000000E+00  1.70000000E+00  1.70000000E+00
  1.70000000E+00  1.30000000E+00  1.70000000E+00  1.30000000E+00  1.30000000E+00
  1.30000000E+00  1.70000000E+00  1.70000000E+00  1.30000000E+00  1.70000000E+00
  1.70000000E+00  1.30000000E+00  1.70000000E+00  1.30000000E+00  1.30000000E+00
  1.30000000E+00  1.70000000E+00  1.70000000E+00  1.70000000E+00  1.70000000E+00
  1.70000000E+00  1.30000000E+00  1.70000000E+00  1.70000000E+00  1.70000000E+00
  1.30000000E+00  1.70000000E+00  1.70000000E+00  1.30000000E+00  1.30000000E+00
  1.70000000E+00  1.70000000E+00  1.70000000E+00  1.30000000E+00  1.70000000E+00
  1.70000000E+00  1.70000000E+00  1.30000000E+00  1.70000000E+00  1.30000000E+00
  1.30000000E+00  1.30000000E+00  1.70000000E+00  1.70000000E+00  1.30000000E+00
  1.70000000E+00  1.70000000E+00  1.30000000E+00  1.70000000E+00  1.30000000E+00
  1.30000000E+00  1.30000000E+00  1.70000000E+00  1.70000000E+00  1.70000000E+00
  1.70000000E+00  1.70000000E+00  1.30000000E+00  1.70000000E+00  1.70000000E+00
  1.70000000E+00  1.30000000E+00  1.70000000E+00  1.70000000E+00  1.30000000E+00
  1.30000000E+00  1.70000000E+00  1.70000000E+00  1.70000000E+00  1.30000000E+00
  1.70000000E+00  1.70000000E+00  1.70000000E+00  1.30000000E+00  1.70000000E+00
  1.30000000E+00  1.30000000E+00  1.30000000E+00  1.70000000E+00  1.70000000E+00
  1.30000000E+00  1.70000000E+00  1.70000000E+00  1.30000000E+00  1.70000000E+00
  1.30000000E+00  1.30000000E+00  1.30000000E+00  1.70000000E+00  1.70000000E+00
  1.70000000E+00  1.70000000E+00  1.70000000E+00  1.30000000E+00  1.70000000E+00
  1.70000000E+00  1.70000000E+00  1.30000000E+00  1.70000000E+00  1.70000000E+00
  1.30000000E+00  1.30000000E+00  1.70000000E+00  1.70000000E+00  1.70000000E+00
  1.30000000E+00  1.70000000E+00  1.70000000E+00  1.70000000E+00  1.30000000E+00
  1.70000000E+00  1.30000000E+00  1.30000000E+00  1.30000000E+00  1.70000000E+00
  1.70000000E+00  1.30000000E+00  1.70000000E+00  1.70000000E+00  1.30000000E+00
  1.70000000E+00  1.30000000E+00  1.30000000E+00  1.30000000E+00  1.70000000E+00
  1.70000000E+00  1.70000000E+00  1.70000000E+00  1.70000000E+00  1.30000000E+00
  1.70000000E+00  1.70000000E+00  1.70000000E+00  1.30000000E+00  1.70000000E+00
  1.70000000E+00  1.30000000E+00  1.30000000E+00  1.70000000E+00  1.70000000E+00
  1.70000000E+00  1.30000000E+00  1.70000000E+00  1.70000000E+00  1.70000000E+00
  1.30000000E+00  1.70000000E+00  1.30000000E+00  1.30000000E+00  1.30000000E+00
  1.70000000E+00  1.70000000E+00  1.30000000E+00  1.70000000E+00  1.70000000E+00
  1.30000000E+00  1.70000000E+00  1.30000000E+00  1.30000000E+00  1.30000000E+00
  1.70000000E+00  1.70000000E+00  1.70000000E+00  1.70000000E+00  1.70000000E+00
  1.30000000E+00  1.70000000E+00  1.70000000E+00  1.70000000E+00  1.30000000E+00
  1.70000000E+00  1.70000000E+00  1.30000000E+00  1.30000000E+00  1.70000000E+00
  1.70000000E+00  1.70000000E+00  1.30000000E+00  1.70000000E+00  1.70000000E+00
  1.70000000E+00  1.30000000E+00  1.70000000E+00  1.30000000E+00  1.30000000E+00
  1.30000000E+00  1.70000000E+00  1.70000000E+00  1.30000000E+00  1.70000000E+00
  1.70000000E+00  1.30000000E+00  1.70000000E+00  1.30000000E+00  1.30000000E+00
  1.30000000E+00  1.70000000E+00  1.70000000E+00  1.70000000E+00  1.70000000E+00
  1.70000000E+00  1.30000000E+00  1.70000000E+00  1.70000000E+00  1.70000000E+00
  1.30000000E+00  1.70000000E+00  1.70000000E+00  1.30000000E+00  1.30000000E+00
  1.70000000E+00  1.70000000E+00  1.70000000E+00  1.30000000E+00  1.70000000E+00
  1.70000000E+00  1.70000000E+00  1.30000000E+00  1.70000000E+00  1.30000000E+00
  1.30000000E+00  1.30000000E+00  1.70000000E+00  1.70000000E+00  1.30000000E+00
  1.70000000E+00  1.70000000E+00  1.30000000E+00  1.70000000E+00  1.30000000E+00
  1.30000000E+00  1.30000000E+00  1.70000000E+00  1.70000000E+00  1.70000000E+00
  1.70000000E+00  1.70000000E+00  1.30000000E+00  1.70000000E+00  1.70000000E+00
  1.70000000E+00  1.30000000E+00  1.70000000E+00  1.70000000E+00  1.30000000E+00
  1.30000000E+00  1.70000000E+00  1.70000000E+00  1.70000000E+00  1.30000000E+00
  1.70000000E+00  1.70000000E+00  1.70000000E+00  1.30000000E+00  1.70000000E+00
  1.30000000E+00  1.30000000E+00  1.30000000E+00  1.70000000E+00  1.70000000E+00
  1.30000000E+00  1.70000000E+00  1.70000000E+00  1.30000000E+00  1.70000000E+00
  1.30000000E+00  1.30000000E+00  1.30000000E+00  1.70000000E+00  1.70000000E+00
  1.70000000E+00  1.70000000E+00  1.70000000E+00  1.30000000E+00  1.70000000E+00
  1.70000000E+00  1.70000000E+00  1.30000000E+00  1.70000000E+00  1.70000000E+00
  1.30000000E+00  1.30000000E+00  1.70000000E+00  1.70000000E+00  1.70000000E+00
  1.30000000E+00  1.70000000E+00  1.70000000E+00  1.70000000E+00  1.30000000E+00
  1.70000000E+00  1.30000000E+00  1.30000000E+00  1.30000000E+00  1.70000000E+00
  1.70000000E+00  1.30000000E+00  1.70000000E+00  1.70000000E+00  1.30000000E+00
  1.70000000E+00  1.30000000E+00  1.30000000E+00  1.30000000E+00  1.70000000E+00
  1.70000000E+00  1.70000000E+00  1.70000000E+00  1.70000000E+00  1.30000000E+00
  1.70000000E+00  1.70000000E+00  1.70000000E+00  1.30000000E+00  1.70000000E+00
  1.70000000E+00  1.30000000E+00  1.30000000E+00  1.70000000E+00  1.70000000E+00
  1.70000000E+00  1.30000000E+00  1.70000000E+00  1.70000000E+00  1.70000000E+00
  1.30000000E+00  1.70000000E+00  1.30000000E+00  1.30000000E+00  1.30000000E+00
  1.70000000E+00  1.70000000E+00  1.30000000E+00  1.70000000E+00  1.70000000E+00
  1.30000000E+00  1.70000000E+00  1.30000000E+00  1.30000000E+00  1.30000000E+00
  1.70000000E+00  1.70000000E+00  1.70000000E+00  1.70000000E+00  1.70000000E+00
  1.30000000E+00  1.70000000E+00  1.70000000E+00  1.70000000E+00  1.30000000E+00
  1.70000000E+00  1.70000000E+00  1.30000000E+00  1.30000000E+00  1.70000000E+00
  1.70000000E+00  1.70000000E+00  1.30000000E+00  1.70000000E+00  1.70000000E+00
  1.70000000E+00  1.30000000E+00  1.70000000E+00  1.30000000E+00  1.30000000E+00
  1.30000000E+00  1.70000000E+00  1.70000000E+00  1.30000000E+00  1.70000000E+00
  1.70000000E+00  1.30000000E+00  1.70000000E+00  1.30000000E+00  1.30000000E+00
  1.30000000E+00  1.70000000E+00  1.70000000E+00  1.70000000E+00  1.70000000E+00
  1.70000000E+00  1.30000000E+00  1.70000000E+00  1.70000000E+00  1.70000000E+00
  1.30000000E+00  1.70000000E+00  1.70000000E+00  1.30000000E+00  1.30000000E+00
  1.70000000E+00  1.70000000E+00  1.70000000E+00  1.30000000E+00  1.70000000E+00
  1.70000000E+00  1.70000000E+00  1.30000000E+00  1.70000000E+00  1.30000000E+00
  1.30000000E+00  1.30000000E+00  1.70000000E+00  1.70000000E+00  1.30000000E+00
  1.70000000E+00  1.70000000E+00  1.30000000E+00  1.70000000E+00  1.30000000E+00
  1.30000000E+00  1.30000000E+00  1.70000000E+00  1.70000000E+00  1.70000000E+00
  1.70000000E+00  1.70000000E+00  1.30000000E+00  1.70000000E+00  1.70000000E+00
  1.70000000E+00  1.30000000E+00  1.70000000E+00  1.70000000E+00  1.30000000E+00
  1.30000000E+00  1.70000000E+00  1.70000000E+00  1.70000000E+00  1.30000000E+00
  1.70000000E+00  1.70000000E+00  1.70000000E+00  1.30000000E+00  1.70000000E+00
  1.30000000E+00  1.30000000E+00  1.30000000E+00  1.70000000E+00  1.70000000E+00
  1.30000000E+00  1.70000000E+00  1.70000000E+00  1.30000000E+00  1.70000000E+00
  1.30000000E+00  1.30000000E+00  1.30000000E+00  1.70000000E+00  1.70000000E+00
  1.70000000E+00  1.70000000E+00  1.70000000E+00  1.30000000E+00  1.70000000E+00
  1.70000000E+00  1.70000000E+00  1.30000000E+00  1.70000000E+00  1.70000000E+00
  1.30000000E+00  1.30000000E+00  1.70000000E+00  1.70000000E+00  1.70000000E+00
  1.30000000E+00  1.70000000E+00  1.70000000E+00  1.70000000E+00  1.30000000E+00
  1.70000000E+00  1.30000000E+00  1.30000000E+00  1.30000000E+00  1.70000000E+00
  1.70000000E+00  1.30000000E+00  1.70000000E+00  1.70000000E+00  1.30000000E+00
  1.70000000E+00  1.30000000E+00  1.30000000E+00  1.30000000E+00  1.70000000E+00
  1.70000000E+00  1.70000000E+00  1.70000000E+00  1.70000000E+00  1.30000000E+00
  1.70000000E+00  1.70000000E+00  1.70000000E+00  1.30000000E+00  1.70000000E+00
  1.70000000E+00  1.30000000E+00  1.30000000E+00  1.70000000E+00  1.70000000E+00
  1.70000000E+00  1.30000000E+00  1.70000000E+00  1.70000000E+00  1.70000000E+00
  1.30000000E+00  1.70000000E+00  1.30000000E+00  1.30000000E+00  1.30000000E+00
  1.70000000E+00  1.70000000E+00  1.30000000E+00  1.70000000E+00  1.70000000E+00
  1.30000000E+00  1.70000000E+00  1.30000000E+00  1.30000000E+00  1.30000000E+00
  1.70000000E+00  1.70000000E+00  1.70000000E+00  1.70000000E+00  1.70000000E+00
  1.30000000E+00  1.70000000E+00  1.70000000E+00  1.70000000E+00  1.30000000E+00
  1.70000000E+00  1.70000000E+00  1.30000000E+00  1.30000000E+00  1.70000000E+00
  1.70000000E+00  1.70000000E+00  1.30000000E+00  1.70000000E+00  1.70000000E+00
  1.70000000E+00  1.30000000E+00  1.70000000E+00  1.30000000E+00  1.30000000E+00
  1.30000000E+00  1.70000000E+00  1.70000000E+00  1.30000000E+00  1.70000000E+00
  1.70000000E+00  1.30000000E+00  1.70000000E+00  1.30000000E+00  1.30000000E+00
  1.30000000E+00  1.70000000E+00  1.70000000E+00  1.70000000E+00  1.70000000E+00
  1.70000000E+00  1.30000000E+00  1.70000000E+00  1.70000000E+00  1.70000000E+00
  1.30000000E+00  1.70000000E+00  1.70000000E+00  1.30000000E+00  1.30000000E+00
  1.70000000E+00  1.70000000E+00  1.70000000E+00  1.30000000E+00  1.70000000E+00
  1.70000000E+00  1.70000000E+00  1.30000000E+00  1.70000000E+00  1.30000000E+00
  1.30000000E+00  1.30000000E+00  1.70000000E+00  1.70000000E+00  1.30000000E+00
  1.70000000E+00  1.70000000E+00  1.30000000E+00  1.70000000E+00  1.30000000E+00
  1.30000000E+00  1.30000000E+00  1.70000000E+00  1.70000000E+00  1.70000000E+00
  1.70000000E+00  1.70000000E+00  1.30000000E+00  1.70000000E+00  1.70000000E+00
  1.70000000E+00  1.30000000E+00  1.70000000E+00  1.70000000E+00  1.30000000E+00
  1.30000000E+00  1.70000000E+00  1.70000000E+00  1.70000000E+00  1.30000000E+00
  1.70000000E+00  1.70000000E+00  1.70000000E+00  1.30000000E+00  1.70000000E+00
  1.30000000E+00  1.30000000E+00  1.30000000E+00  1.70000000E+00  1.70000000E+00
  1.30000000E+00  1.70000000E+00  1.70000000E+00  1.30000000E+00  1.70000000E+00
  1.30000000E+00  1.30000000E+00  1.30000000E+00  1.70000000E+00  1.70000000E+00
  1.70000000E+00  1.70000000E+00  1.70000000E+00  1.30000000E+00  1.70000000E+00
  1.70000000E+00  1.70000000E+00  1.30000000E+00  1.70000000E+00  1.70000000E+00
  1.30000000E+00  1.30000000E+00  1.70000000E+00  1.70000000E+00  1.70000000E+00
  1.30000000E+00  1.70000000E+00  1.70000000E+00  1.70000000E+00  1.30000000E+00
  1.70000000E+00  1.30000000E+00  1.30000000E+00  1.30000000E+00  1.70000000E+00
  1.70000000E+00  1.30000000E+00  1.70000000E+00  1.70000000E+00  1.30000000E+00
  1.70000000E+00  1.30000000E+00  1.30000000E+00  1.30000000E+00  1.70000000E+00
  1.70000000E+00  1.70000000E+00  1.70000000E+00  1.70000000E+00  1.30000000E+00
  1.70000000E+00  1.70000000E+00  1.70000000E+00  1.30000000E+00  1.70000000E+00
  1.70000000E+00  1.30000000E+00  1.30000000E+00  1.70000000E+00  1.70000000E+00
  1.70000000E+00  1.30000000E+00  1.70000000E+00  1.70000000E+00  1.70000000E+00
  1.30000000E+00  1.70000000E+00  1.30000000E+00  1.30000000E+00  1.30000000E+00
  1.70000000E+00  1.70000000E+00  1.30000000E+00  1.70000000E+00  1.70000000E+00
  1.30000000E+00  1.70000000E+00  1.30000000E+00  1.30000000E+00  1.30000000E+00
  1.70000000E+00  1.70000000E+00  1.70000000E+00  1.70000000E+00  1.70000000E+00
  1.30000000E+00  1.70000000E+00  1.70000000E+00  1.70000000E+00  1.30000000E+00
  1.70000000E+00  1.70000000E+00  1.30000000E+00  1.30000000E+00  1.70000000E+00
  1.70000000E+00  1.70000000E+00  1.30000000E+00  1.70000000E+00  1.70000000E+00
  1.70000000E+00  1.30000000E+00  1.70000000E+00  1.30000000E+00  1.30000000E+00
  1.30000000E+00  1.70000000E+00  1.70000000E+00  1.30000000E+00  1.70000000E+00
  1.70000000E+00  1.30000000E+00  1.70000000E+00  1.30000000E+00  1.30000000E+00
  1.30000000E+00  1.70000000E+00  1.70000000E+00  1.70000000E+00  1.70000000E+00
  1.70000000E+00  1.30000000E+00  1.70000000E+00  1.70000000E+00  1.70000000E+00
  1.30000000E+00  1.70000000E+00  1.70000000E+00  1.30000000E+00  1.30000000E+00
  1.70000000E+00  1.70000000E+00  1.70000000E+00  1.30000000E+00  1.70000000E+00
  1.70000000E+00  1.70000000E+00  1.30000000E+00  1.70000000E+00  1.30000000E+00
  1.30000000E+00  1.30000000E+00  1.70000000E+00  1.70000000E+00  1.30000000E+00
  1.70000000E+00  1.70000000E+00  1.30000000E+00  1.70000000E+00  1.30000000E+00
  1.30000000E+00  1.30000000E+00  1.70000000E+00  1.70000000E+00  1.70000000E+00
  1.70000000E+00  1.70000000E+00  1.30000000E+00  1.70000000E+00  1.70000000E+00
  1.70000000E+00  1.30000000E+00  1.70000000E+00  1.70000000E+00  1.30000000E+00
  1.30000000E+00  1.70000000E+00  1.70000000E+00  1.70000000E+00  1.30000000E+00
  1.70000000E+00  1.70000000E+00  1.70000000E+00  1.30000000E+00  1.70000000E+00
  1.30000000E+00  1.30000000E+00  1.30000000E+00  1.70000000E+00  1.70000000E+00
  1.30000000E+00  1.70000000E+00  1.70000000E+00  1.30000000E+00  1.70000000E+00
  1.30000000E+00  1.30000000E+00  1.30000000E+00  1.70000000E+00  1.70000000E+00
  1.70000000E+00  1.70000000E+00  1.70000000E+00  1.30000000E+00  1.70000000E+00
  1.70000000E+00  1.70000000E+00  1.30000000E+00  1.70000000E+00  1.70000000E+00
  1.30000000E+00  1.30000000E+00  1.70000000E+00  1.70000000E+00  1.70000000E+00
  1.30000000E+00  1.70000000E+00  1.70000000E+00  1.70000000E+00  1.30000000E+00
  1.70000000E+00  1.30000000E+00  1.30000000E+00  1.30000000E+00  1.70000000E+00
  1.70000000E+00  1.30000000E+00  1.70000000E+00  1.70000000E+00  1.30000000E+00
  1.70000000E+00  1.30000000E+00  1.30000000E+00  1.30000000E+00  1.70000000E+00
  1.70000000E+00  1.70000000E+00  1.70000000E+00  1.70000000E+00  1.30000000E+00
  1.70000000E+00  1.70000000E+00  1.70000000E+00  1.30000000E+00  1.70000000E+00
  1.70000000E+00  1.30000000E+00  1.30000000E+00  1.70000000E+00  1.70000000E+00
  1.70000000E+00  1.30000000E+00  1.70000000E+00  1.70000000E+00  1.70000000E+00
  1.30000000E+00  1.70000000E+00  1.30000000E+00  1.30000000E+00  1.30000000E+00
  1.70000000E+00  1.70000000E+00  1.30000000E+00  1.70000000E+00  1.70000000E+00
  1.30000000E+00  1.70000000E+00  1.30000000E+00  1.30000000E+00  1.30000000E+00
  1.70000000E+00  1.70000000E+00  1.70000000E+00  1.70000000E+00  1.70000000E+00
  1.30000000E+00  1.70000000E+00  1.70000000E+00  1.70000000E+00  1.30000000E+00
  1.70000000E+00  1.70000000E+00  1.30000000E+00  1.30000000E+00  1.70000000E+00
  1.70000000E+00  1.70000000E+00  1.30000000E+00  1.70000000E+00  1.70000000E+00
  1.70000000E+00  1.30000000E+00  1.70000000E+00  1.30000000E+00  1.30000000E+00
  1.30000000E+00  1.70000000E+00  1.70000000E+00  1.30000000E+00  1.70000000E+00
  1.70000000E+00  1.30000000E+00  1.70000000E+00  1.30000000E+00  1.30000000E+00
  1.30000000E+00  1.70000000E+00  1.70000000E+00  1.70000000E+00  1.70000000E+00
  1.70000000E+00  1.30000000E+00  1.70000000E+00  1.70000000E+00  1.70000000E+00
  1.30000000E+00  1.70000000E+00  1.70000000E+00  1.30000000E+00  1.30000000E+00
  1.70000000E+00  1.70000000E+00  1.70000000E+00  1.30000000E+00  1.70000000E+00
  1.70000000E+00  1.70000000E+00  1.30000000E+00  1.70000000E+00  1.30000000E+00
  1.30000000E+00  1.30000000E+00  1.70000000E+00  1.70000000E+00  1.30000000E+00
  1.70000000E+00  1.70000000E+00  1.30000000E+00  1.70000000E+00  1.30000000E+00
  1.30000000E+00  1.30000000E+00  1.70000000E+00  1.70000000E+00  1.70000000E+00
  1.70000000E+00  1.70000000E+00  1.30000000E+00  1.70000000E+00  1.70000000E+00
  1.70000000E+00  1.30000000E+00  1.70000000E+00  1.70000000E+00  1.30000000E+00
  1.30000000E+00  1.70000000E+00  1.70000000E+00  1.70000000E+00  1.30000000E+00
  1.70000000E+00  1.70000000E+00  1.70000000E+00  1.30000000E+00  1.70000000E+00
  1.30000000E+00  1.30000000E+00  1.30000000E+00  1.70000000E+00  1.70000000E+00
  1.30000000E+00  1.70000000E+00  1.70000000E+00  1.30000000E+00  1.70000000E+00
  1.30000000E+00  1.30000000E+00  1.30000000E+00  1.70000000E+00  1.70000000E+00
  1.70000000E+00  1.70000000E+00  1.70000000E+00  1.30000000E+00  1.70000000E+00
  1.70000000E+00  1.70000000E+00  1.30000000E+00  1.70000000E+00  1.70000000E+00
  1.30000000E+00  1.30000000E+00  1.70000000E+00  1.70000000E+00  1.70000000E+00
  1.30000000E+00  1.70000000E+00  1.70000000E+00  1.70000000E+00  1.30000000E+00
  1.70000000E+00  1.30000000E+00  1.30000000E+00  1.30000000E+00  1.70000000E+00
  1.70000000E+00  1.30000000E+00  1.70000000E+00  1.70000000E+00  1.30000000E+00
  1.70000000E+00  1.30000000E+00  1.30000000E+00  1.30000000E+00  1.70000000E+00
  1.70000000E+00  1.70000000E+00  1.70000000E+00  1.70000000E+00  1.30000000E+00
  1.70000000E+00  1.70000000E+00  1.70000000E+00  1.30000000E+00  1.70000000E+00
  1.70000000E+00  1.30000000E+00  1.30000000E+00  1.70000000E+00  1.70000000E+00
  1.70000000E+00  1.30000000E+00  1.70000000E+00  1.70000000E+00  1.70000000E+00
  1.30000000E+00  1.70000000E+00  1.30000000E+00  1.30000000E+00  1.30000000E+00
  1.70000000E+00  1.70000000E+00  1.30000000E+00  1.70000000E+00  1.70000000E+00
  1.30000000E+00  1.70000000E+00  1.30000000E+00  1.30000000E+00  1.30000000E+00
  1.70000000E+00  1.70000000E+00  1.70000000E+00  1.70000000E+00  1.70000000E+00
  1.30000000E+00  1.70000000E+00  1.70000000E+00  1.70000000E+00  1.30000000E+00
  1.70000000E+00  1.70000000E+00  1.30000000E+00  1.30000000E+00  1.70000000E+00
  1.70000000E+00  1.70000000E+00  1.30000000E+00  1.70000000E+00  1.70000000E+00
  1.70000000E+00  1.30000000E+00  1.70000000E+00  1.30000000E+00  1.30000000E+00
  1.30000000E+00  1.70000000E+00  1.70000000E+00  1.30000000E+00  1.70000000E+00
  1.70000000E+00  1.30000000E+00  1.70000000E+00  1.30000000E+00  1.30000000E+00
  1.30000000E+00  1.70000000E+00  1.70000000E+00  1.70000000E+00  1.70000000E+00
  1.70000000E+00  1.30000000E+00  1.70000000E+00  1.70000000E+00  1.70000000E+00
  1.30000000E+00  1.70000000E+00  1.70000000E+00  1.30000000E+00  1.30000000E+00
  1.70000000E+00  1.70000000E+00  1.70000000E+00  1.30000000E+00  1.70000000E+00
  1.70000000E+00  1.70000000E+00  1.30000000E+00  1.70000000E+00  1.30000000E+00
  1.30000000E+00  1.30000000E+00  1.70000000E+00  1.70000000E+00  1.30000000E+00
  1.70000000E+00  1.70000000E+00  1.30000000E+00  1.70000000E+00  1.30000000E+00
  1.30000000E+00  1.30000000E+00  1.70000000E+00  1.70000000E+00  1.70000000E+00
  1.70000000E+00  1.70000000E+00  1.30000000E+00  1.70000000E+00  1.70000000E+00
  1.70000000E+00  1.30000000E+00  1.70000000E+00  1.70000000E+00  1.30000000E+00
  1.30000000E+00  1.70000000E+00  1.70000000E+00  1.70000000E+00  1.30000000E+00
  1.70000000E+00  1.70000000E+00  1.70000000E+00  1.30000000E+00  1.70000000E+00
  1.30000000E+00  1.30000000E+00  1.30000000E+00  1.70000000E+00  1.70000000E+00
  1.30000000E+00  1.70000000E+00  1.70000000E+00  1.30000000E+00  1.70000000E+00
  1.30000000E+00  1.30000000E+00  1.30000000E+00  1.70000000E+00  1.70000000E+00
  1.70000000E+00  1.70000000E+00  1.70000000E+00  1.30000000E+00  1.70000000E+00
  1.70000000E+00  1.70000000E+00  1.30000000E+00  1.70000000E+00  1.70000000E+00
  1.30000000E+00  1.30000000E+00  1.70000000E+00  1.70000000E+00  1.70000000E+00
  1.30000000E+00  1.70000000E+00  1.70000000E+00  1.70000000E+00  1.30000000E+00
  1.70000000E+00  1.30000000E+00  1.30000000E+00  1.30000000E+00  1.70000000E+00
  1.70000000E+00  1.30000000E+00  1.70000000E+00  1.70000000E+00  1.30000000E+00
  1.70000000E+00  1.30000000E+00  1.30000000E+00  1.30000000E+00  1.70000000E+00
  1.70000000E+00  1.70000000E+00  1.70000000E+00  1.70000000E+00  1.30000000E+00
  1.70000000E+00  1.70000000E+00  1.70000000E+00  1.30000000E+00  1.70000000E+00
  1.70000000E+00  1.30000000E+00  1.30000000E+00  1.70000000E+00  1.70000000E+00
  1.70000000E+00  1.30000000E+00  1.70000000E+00  1.70000000E+00  1.70000000E+00
  1.30000000E+00  1.70000000E+00  1.30000000E+00  1.30000000E+00  1.30000000E+00
  1.70000000E+00  1.70000000E+00  1.30000000E+00  1.70000000E+00  1.70000000E+00
  1.30000000E+00  1.70000000E+00  1.30000000E+00  1.30000000E+00  1.30000000E+00
  1.70000000E+00  1.70000000E+00  1.70000000E+00  1.70000000E+00  1.70000000E+00
  1.30000000E+00  1.70000000E+00  1.70000000E+00  1.70000000E+00  1.30000000E+00
  1.70000000E+00  1.70000000E+00  1.30000000E+00  1.30000000E+00  1.70000000E+00
  1.70000000E+00  1.70000000E+00  1.30000000E+00  1.70000000E+00  1.70000000E+00
  1.70000000E+00  1.30000000E+00  1.70000000E+00  1.30000000E+00  1.30000000E+00
  1.30000000E+00  1.70000000E+00  1.70000000E+00  1.30000000E+00  1.70000000E+00
  1.70000000E+00  1.30000000E+00  1.70000000E+00  1.30000000E+00  1.30000000E+00
  1.30000000E+00  1.70000000E+00  1.70000000E+00  1.70000000E+00  1.70000000E+00
  1.70000000E+00  1.30000000E+00  1.70000000E+00  1.70000000E+00  1.70000000E+00
  1.30000000E+00  1.70000000E+00  1.70000000E+00  1.30000000E+00  1.30000000E+00
  1.70000000E+00  1.70000000E+00  1.70000000E+00  1.30000000E+00  1.70000000E+00
  1.70000000E+00  1.70000000E+00  1.30000000E+00  1.70000000E+00  1.30000000E+00
  1.30000000E+00  1.30000000E+00  1.70000000E+00  1.70000000E+00  1.30000000E+00
  1.70000000E+00  1.70000000E+00  1.30000000E+00  1.70000000E+00  1.30000000E+00
  1.30000000E+00  1.30000000E+00  1.70000000E+00  1.70000000E+00  1.70000000E+00
  1.70000000E+00  1.70000000E+00  1.30000000E+00  1.70000000E+00  1.70000000E+00
  1.70000000E+00  1.30000000E+00  1.70000000E+00  1.70000000E+00  1.30000000E+00
  1.30000000E+00  1.70000000E+00  1.70000000E+00  1.70000000E+00  1.30000000E+00
  1.70000000E+00  1.70000000E+00  1.70000000E+00  1.30000000E+00  1.70000000E+00
  1.30000000E+00  1.30000000E+00  1.30000000E+00  1.70000000E+00  1.70000000E+00
  1.30000000E+00  1.70000000E+00  1.70000000E+00  1.30000000E+00  1.70000000E+00
  1.30000000E+00  1.30000000E+00  1.30000000E+00  1.70000000E+00  1.70000000E+00
  1.70000000E+00  1.70000000E+00  1.70000000E+00  1.30000000E+00  1.70000000E+00
  1.70000000E+00  1.70000000E+00  1.30000000E+00  1.70000000E+00  1.70000000E+00
  1.30000000E+00  1.30000000E+00  1.70000000E+00  1.70000000E+00  1.70000000E+00
  1.30000000E+00  1.70000000E+00  1.70000000E+00  1.70000000E+00  1.30000000E+00
  1.70000000E+00  1.30000000E+00  1.30000000E+00  1.30000000E+00  1.70000000E+00
  1.70000000E+00  1.30000000E+00  1.70000000E+00  1.70000000E+00  1.30000000E+00
  1.70000000E+00  1.30000000E+00  1.30000000E+00  1.30000000E+00  1.70000000E+00
  1.70000000E+00  1.70000000E+00  1.70000000E+00  1.70000000E+00  1.30000000E+00
  1.70000000E+00  1.70000000E+00  1.70000000E+00  1.30000000E+00  1.70000000E+00
  1.70000000E+00  1.30000000E+00  1.30000000E+00  1.70000000E+00  1.70000000E+00
  1.70000000E+00  1.30000000E+00  1.70000000E+00  1.70000000E+00  1.70000000E+00
  1.30000000E+00  1.70000000E+00  1.30000000E+00  1.30000000E+00  1.30000000E+00
  1.70000000E+00  1.70000000E+00  1.30000000E+00  1.70000000E+00  1.70000000E+00
  1.30000000E+00  1.70000000E+00  1.30000000E+00  1.30000000E+00  1.30000000E+00
  1.70000000E+00  1.70000000E+00  1.70000000E+00  1.70000000E+00  1.70000000E+00
  1.30000000E+00  1.70000000E+00  1.70000000E+00  1.70000000E+00  1.30000000E+00
  1.70000000E+00  1.70000000E+00  1.30000000E+00  1.30000000E+00  1.70000000E+00
  1.70000000E+00  1.70000000E+00  1.30000000E+00  1.70000000E+00  1.70000000E+00
  1.70000000E+00  1.30000000E+00  1.70000000E+00  1.30000000E+00  1.30000000E+00
  1.30000000E+00  1.70000000E+00  1.70000000E+00  1.30000000E+00  1.70000000E+00
  1.70000000E+00  1.30000000E+00  1.70000000E+00  1.30000000E+00  1.30000000E+00
  1.30000000E+00  1.70000000E+00  1.70000000E+00  1.70000000E+00  1.70000000E+00
  1.70000000E+00  1.30000000E+00  1.70000000E+00  1.70000000E+00  1.70000000E+00
  1.30000000E+00  1.70000000E+00  1.70000000E+00  1.30000000E+00  1.30000000E+00
  1.70000000E+00  1.70000000E+00  1.70000000E+00  1.30000000E+00  1.70000000E+00
  1.70000000E+00  1.70000000E+00  1.30000000E+00  1.70000000E+00  1.30000000E+00
  1.30000000E+00  1.30000000E+00  1.70000000E+00  1.70000000E+00  1.30000000E+00
  1.70000000E+00  1.70000000E+00  1.30000000E+00  1.70000000E+00  1.30000000E+00
  1.30000000E+00  1.30000000E+00  1.70000000E+00  1.70000000E+00  1.70000000E+00
  1.70000000E+00  1.70000000E+00  1.30000000E+00  1.70000000E+00  1.70000000E+00
  1.70000000E+00  1.30000000E+00  1.70000000E+00  1.70000000E+00  1.30000000E+00
  1.30000000E+00  1.70000000E+00  1.70000000E+00  1.70000000E+00  1.30000000E+00
  1.70000000E+00  1.70000000E+00  1.70000000E+00  1.30000000E+00  1.70000000E+00
  1.30000000E+00  1.30000000E+00  1.30000000E+00  1.70000000E+00  1.70000000E+00
  1.30000000E+00  1.70000000E+00  1.70000000E+00  1.30000000E+00  1.70000000E+00
  1.30000000E+00  1.30000000E+00  1.30000000E+00  1.70000000E+00  1.70000000E+00
  1.70000000E+00  1.70000000E+00  1.70000000E+00  1.30000000E+00  1.70000000E+00
  1.70000000E+00  1.70000000E+00  1.30000000E+00  1.70000000E+00  1.70000000E+00
  1.30000000E+00  1.30000000E+00  1.70000000E+00  1.70000000E+00  1.70000000E+00
  1.30000000E+00  1.70000000E+00  1.70000000E+00  1.70000000E+00  1.30000000E+00
  1.70000000E+00  1.30000000E+00  1.30000000E+00  1.30000000E+00  1.70000000E+00
  1.70000000E+00  1.30000000E+00  1.70000000E+00  1.70000000E+00  1.30000000E+00
  1.70000000E+00  1.30000000E+00  1.30000000E+00  1.30000000E+00  1.70000000E+00
  1.70000000E+00  1.70000000E+00  1.70000000E+00  1.70000000E+00  1.30000000E+00
  1.70000000E+00  1.70000000E+00  1.70000000E+00  1.30000000E+00  1.70000000E+00
  1.70000000E+00  1.30000000E+00  1.30000000E+00  1.70000000E+00  1.70000000E+00
  1.70000000E+00  1.30000000E+00  1.70000000E+00  1.70000000E+00  1.70000000E+00
  1.30000000E+00  1.70000000E+00  1.30000000E+00  1.30000000E+00  1.30000000E+00
  1.70000000E+00  1.70000000E+00  1.30000000E+00  1.70000000E+00  1.70000000E+00
  1.30000000E+00  1.70000000E+00  1.30000000E+00  1.30000000E+00  1.30000000E+00
  1.70000000E+00  1.70000000E+00  1.70000000E+00  1.70000000E+00  1.70000000E+00
  1.30000000E+00  1.70000000E+00  1.70000000E+00  1.70000000E+00  1.30000000E+00
  1.70000000E+00  1.70000000E+00  1.30000000E+00  1.30000000E+00  1.70000000E+00
  1.70000000E+00  1.70000000E+00  1.30000000E+00  1.70000000E+00  1.70000000E+00
  1.70000000E+00  1.30000000E+00  1.70000000E+00  1.30000000E+00  1.30000000E+00
  1.30000000E+00  1.70000000E+00  1.70000000E+00  1.30000000E+00  1.70000000E+00
  1.70000000E+00  1.30000000E+00  1.70000000E+00  1.30000000E+00  1.30000000E+00
  1.30000000E+00  1.70000000E+00  1.70000000E+00  1.70000000E+00  1.70000000E+00
  1.70000000E+00  1.30000000E+00  1.70000000E+00  1.70000000E+00  1.70000000E+00
  1.30000000E+00  1.70000000E+00  1.70000000E+00  1.30000000E+00  1.30000000E+00
  1.70000000E+00  1.70000000E+00  1.70000000E+00  1.30000000E+00  1.70000000E+00
  1.70000000E+00  1.70000000E+00  1.30000000E+00  1.70000000E+00  1.30000000E+00
  1.30000000E+00  1.30000000E+00  1.70000000E+00  1.70000000E+00  1.30000000E+00
  1.70000000E+00  1.70000000E+00  1.30000000E+00  1.70000000E+00  1.30000000E+00
  1.30000000E+00  1.30000000E+00  1.70000000E+00  1.70000000E+00  1.70000000E+00
  1.70000000E+00  1.70000000E+00  1.30000000E+00  1.70000000E+00  1.70000000E+00
  1.70000000E+00  1.30000000E+00  1.70000000E+00  1.70000000E+00  1.30000000E+00
  1.30000000E+00  1.70000000E+00  1.70000000E+00  1.70000000E+00  1.30000000E+00
  1.70000000E+00  1.70000000E+00  1.70000000E+00  1.30000000E+00  1.70000000E+00
  1.30000000E+00  1.30000000E+00  1.30000000E+00  1.70000000E+00  1.70000000E+00
  1.30000000E+00  1.70000000E+00  1.70000000E+00  1.30000000E+00  1.70000000E+00
  1.30000000E+00  1.30000000E+00  1.30000000E+00  1.70000000E+00  1.70000000E+00
  1.70000000E+00  1.70000000E+00  1.70000000E+00  1.30000000E+00  1.70000000E+00
  1.70000000E+00  1.70000000E+00  1.30000000E+00  1.70000000E+00  1.70000000E+00
  1.30000000E+00  1.30000000E+00  1.70000000E+00  1.70000000E+00  1.70000000E+00
  1.30000000E+00  1.70000000E+00  1.70000000E+00  1.70000000E+00  1.30000000E+00
  1.70000000E+00  1.30000000E+00  1.30000000E+00  1.30000000E+00  1.70000000E+00
  1.70000000E+00  1.30000000E+00  1.70000000E+00  1.70000000E+00  1.30000000E+00
  1.70000000E+00  1.30000000E+00  1.30000000E+00  1.30000000E+00  1.70000000E+00
  1.70000000E+00  1.70000000E+00  1.70000000E+00  1.70000000E+00  1.30000000E+00
  1.70000000E+00  1.70000000E+00  1.70000000E+00  1.30000000E+00  1.70000000E+00
  1.70000000E+00  1.30000000E+00  1.30000000E+00  1.70000000E+00  1.70000000E+00
  1.70000000E+00  1.30000000E+00  1.70000000E+00  1.70000000E+00  1.70000000E+00
  1.30000000E+00  1.70000000E+00  1.30000000E+00  1.30000000E+00  1.30000000E+00
  1.70000000E+00  1.70000000E+00  1.30000000E+00  1.70000000E+00  1.70000000E+00
  1.30000000E+00  1.70000000E+00  1.30000000E+00  1.30000000E+00  1.30000000E+00
  1.70000000E+00  1.70000000E+00  1.70000000E+00  1.70000000E+00  1.70000000E+00
  1.30000000E+00  1.70000000E+00  1.70000000E+00  1.70000000E+00  1.30000000E+00
  1.70000000E+00  1.70000000E+00  1.30000000E+00  1.30000000E+00  1.70000000E+00
  1.70000000E+00  1.70000000E+00  1.30000000E+00  1.70000000E+00  1.70000000E+00
  1.70000000E+00  1.30000000E+00  1.70000000E+00  1.30000000E+00  1.30000000E+00
  1.30000000E+00  1.70000000E+00  1.70000000E+00  1.30000000E+00  1.70000000E+00
  1.70000000E+00  1.30000000E+00  1.70000000E+00  1.30000000E+00  1.30000000E+00
  1.30000000E+00  1.70000000E+00  1.70000000E+00  1.70000000E+00  1.70000000E+00
  1.70000000E+00  1.30000000E+00  1.70000000E+00  1.70000000E+00  1.70000000E+00
  1.30000000E+00  1.70000000E+00  1.70000000E+00  1.30000000E+00  1.30000000E+00
  1.70000000E+00  1.70000000E+00  1.70000000E+00  1.30000000E+00  1.70000000E+00
  1.70000000E+00  1.70000000E+00  1.30000000E+00  1.70000000E+00  1.30000000E+00
  1.30000000E+00  1.30000000E+00  1.70000000E+00  1.70000000E+00  1.30000000E+00
  1.70000000E+00  1.70000000E+00  1.30000000E+00  1.70000000E+00  1.30000000E+00
  1.30000000E+00  1.30000000E+00  1.70000000E+00  1.70000000E+00  1.70000000E+00
  1.70000000E+00  1.70000000E+00  1.30000000E+00  1.70000000E+00  1.70000000E+00
  1.70000000E+00  1.30000000E+00  1.70000000E+00  1.70000000E+00  1.30000000E+00
  1.30000000E+00  1.70000000E+00  1.70000000E+00  1.70000000E+00  1.30000000E+00
  1.70000000E+00  1.70000000E+00  1.70000000E+00  1.30000000E+00  1.70000000E+00
  1.30000000E+00  1.30000000E+00  1.30000000E+00  1.70000000E+00  1.70000000E+00
  1.30000000E+00  1.70000000E+00  1.70000000E+00  1.30000000E+00  1.70000000E+00
  1.30000000E+00  1.30000000E+00  1.30000000E+00  1.70000000E+00  1.70000000E+00
  1.70000000E+00  1.70000000E+00  1.70000000E+00  1.30000000E+00  1.70000000E+00
  1.70000000E+00  1.70000000E+00  1.30000000E+00  1.70000000E+00  1.70000000E+00
  1.30000000E+00  1.30000000E+00  1.70000000E+00  1.70000000E+00  1.70000000E+00
  1.30000000E+00  1.70000000E+00  1.70000000E+00  1.70000000E+00  1.30000000E+00
  1.70000000E+00  1.30000000E+00  1.30000000E+00  1.30000000E+00  1.70000000E+00
  1.70000000E+00  1.30000000E+00  1.70000000E+00  1.70000000E+00  1.30000000E+00
  1.70000000E+00  1.30000000E+00  1.30000000E+00  1.30000000E+00  1.70000000E+00
  1.70000000E+00  1.70000000E+00  1.70000000E+00  1.70000000E+00  1.30000000E+00
  1.70000000E+00  1.70000000E+00  1.70000000E+00  1.30000000E+00  1.70000000E+00
  1.70000000E+00  1.30000000E+00  1.30000000E+00  1.70000000E+00  1.70000000E+00
  1.70000000E+00  1.30000000E+00  1.70000000E+00  1.70000000E+00  1.70000000E+00
  1.30000000E+00  1.70000000E+00  1.30000000E+00  1.30000000E+00  1.30000000E+00
  1.70000000E+00  1.70000000E+00  1.30000000E+00  1.70000000E+00  1.70000000E+00
  1.30000000E+00  1.70000000E+00  1.30000000E+00  1.30000000E+00  1.30000000E+00
  1.70000000E+00  1.70000000E+00  1.70000000E+00  1.70000000E+00  1.70000000E+00
  1.30000000E+00  1.70000000E+00  1.70000000E+00  1.70000000E+00  1.30000000E+00
  1.70000000E+00  1.70000000E+00  1.30000000E+00  1.30000000E+00  1.70000000E+00
  1.70000000E+00  1.70000000E+00  1.30000000E+00  1.70000000E+00  1.70000000E+00
  1.70000000E+00  1.30000000E+00  1.70000000E+00  1.30000000E+00  1.30000000E+00
  1.30000000E+00  1.70000000E+00  1.70000000E+00  1.30000000E+00  1.70000000E+00
  1.70000000E+00  1.30000000E+00  1.70000000E+00  1.30000000E+00  1.30000000E+00
  1.30000000E+00  1.70000000E+00  1.70000000E+00  1.70000000E+00  1.70000000E+00
  1.70000000E+00  1.30000000E+00  1.70000000E+00  1.70000000E+00  1.70000000E+00
  1.30000000E+00  1.70000000E+00  1.70000000E+00  1.30000000E+00  1.30000000E+00
  1.70000000E+00  1.70000000E+00  1.70000000E+00  1.30000000E+00  1.70000000E+00
  1.70000000E+00  1.70000000E+00  1.30000000E+00  1.70000000E+00  1.30000000E+00
  1.30000000E+00  1.30000000E+00  1.70000000E+00  1.70000000E+00  1.30000000E+00
  1.70000000E+00  1.70000000E+00  1.30000000E+00  1.70000000E+00  1.30000000E+00
  1.30000000E+00  1.30000000E+00  1.70000000E+00  1.70000000E+00  1.70000000E+00
  1.70000000E+00  1.70000000E+00  1.30000000E+00  1.70000000E+00  1.70000000E+00
  1.70000000E+00  1.30000000E+00  1.70000000E+00  1.70000000E+00  1.30000000E+00
  1.30000000E+00  1.70000000E+00  1.70000000E+00  1.70000000E+00  1.30000000E+00
  1.70000000E+00  1.70000000E+00  1.70000000E+00  1.30000000E+00  1.70000000E+00
  1.30000000E+00  1.30000000E+00  1.30000000E+00  1.70000000E+00  1.70000000E+00
  1.30000000E+00  1.70000000E+00  1.70000000E+00  1.30000000E+00  1.70000000E+00
  1.30000000E+00  1.30000000E+00  1.30000000E+00  1.70000000E+00  1.70000000E+00
  1.70000000E+00  1.70000000E+00  1.70000000E+00  1.30000000E+00  1.70000000E+00
  1.70000000E+00  1.70000000E+00  1.30000000E+00  1.70000000E+00  1.70000000E+00
  1.30000000E+00  1.30000000E+00  1.70000000E+00  1.70000000E+00  1.70000000E+00
  1.30000000E+00  1.70000000E+00  1.70000000E+00  1.70000000E+00  1.30000000E+00
  1.70000000E+00  1.30000000E+00  1.30000000E+00  1.30000000E+00  1.70000000E+00
  1.70000000E+00  1.30000000E+00  1.70000000E+00  1.70000000E+00  1.30000000E+00
  1.70000000E+00  1.30000000E+00  1.30000000E+00  1.30000000E+00  1.70000000E+00
  1.70000000E+00  1.70000000E+00  1.70000000E+00  1.70000000E+00  1.30000000E+00
  1.70000000E+00  1.70000000E+00  1.70000000E+00  1.30000000E+00  1.70000000E+00
  1.70000000E+00  1.30000000E+00  1.30000000E+00  1.70000000E+00  1.70000000E+00
  1.70000000E+00  1.30000000E+00  1.70000000E+00  1.70000000E+00  1.70000000E+00
  1.30000000E+00  1.70000000E+00  1.30000000E+00  1.30000000E+00  1.30000000E+00
  1.70000000E+00  1.70000000E+00  1.30000000E+00  1.70000000E+00  1.70000000E+00
  1.30000000E+00  1.70000000E+00  1.30000000E+00  1.30000000E+00  1.30000000E+00
  1.70000000E+00  1.70000000E+00  1.70000000E+00  1.70000000E+00  1.70000000E+00
  1.30000000E+00  1.70000000E+00  1.70000000E+00  1.70000000E+00  1.30000000E+00
  1.70000000E+00  1.70000000E+00  1.30000000E+00  1.30000000E+00  1.70000000E+00
  1.70000000E+00  1.70000000E+00  1.30000000E+00  1.70000000E+00  1.70000000E+00
  1.70000000E+00  1.30000000E+00  1.70000000E+00  1.30000000E+00  1.30000000E+00
  1.30000000E+00  1.70000000E+00  1.70000000E+00  1.30000000E+00  1.70000000E+00
  1.70000000E+00  1.30000000E+00  1.70000000E+00  1.30000000E+00  1.30000000E+00
  1.30000000E+00  1.70000000E+00  1.70000000E+00  1.70000000E+00  1.70000000E+00
  1.70000000E+00  1.30000000E+00  1.70000000E+00  1.70000000E+00  1.70000000E+00
  1.30000000E+00  1.70000000E+00  1.70000000E+00  1.30000000E+00  1.30000000E+00
  1.70000000E+00  1.70000000E+00  1.70000000E+00  1.30000000E+00  1.70000000E+00
  1.70000000E+00  1.70000000E+00  1.30000000E+00  1.70000000E+00  1.30000000E+00
  1.30000000E+00  1.30000000E+00  1.70000000E+00  1.70000000E+00  1.30000000E+00
  1.70000000E+00  1.70000000E+00  1.30000000E+00  1.70000000E+00  1.30000000E+00
  1.30000000E+00  1.30000000E+00  1.70000000E+00  1.70000000E+00  1.70000000E+00
  1.70000000E+00  1.70000000E+00  1.30000000E+00  1.70000000E+00  1.70000000E+00
  1.70000000E+00  1.30000000E+00  1.70000000E+00  1.70000000E+00  1.30000000E+00
  1.30000000E+00  1.70000000E+00  1.70000000E+00  1.70000000E+00  1.30000000E+00
  1.70000000E+00  1.70000000E+00  1.70000000E+00  1.30000000E+00  1.70000000E+00
  1.30000000E+00  1.30000000E+00  1.30000000E+00  1.70000000E+00  1.70000000E+00
  1.30000000E+00  1.70000000E+00  1.70000000E+00  1.30000000E+00  1.70000000E+00
  1.30000000E+00  1.30000000E+00  1.30000000E+00  1.70000000E+00  1.70000000E+00
  1.70000000E+00  1.70000000E+00  1.70000000E+00  1.30000000E+00  1.70000000E+00
  1.70000000E+00  1.70000000E+00  1.30000000E+00  1.70000000E+00  1.70000000E+00
  1.30000000E+00  1.30000000E+00  1.70000000E+00  1.70000000E+00  1.70000000E+00
  1.30000000E+00  1.70000000E+00  1.70000000E+00  1.70000000E+00  1.30000000E+00
  1.70000000E+00  1.30000000E+00  1.30000000E+00  1.30000000E+00  1.70000000E+00
  1.70000000E+00  1.30000000E+00  1.70000000E+00  1.70000000E+00  1.30000000E+00
  1.70000000E+00  1.30000000E+00  1.30000000E+00  1.30000000E+00  1.70000000E+00
  1.70000000E+00  1.70000000E+00  1.70000000E+00  1.70000000E+00  1.30000000E+00
  1.70000000E+00  1.70000000E+00  1.70000000E+00  1.30000000E+00  1.70000000E+00
  1.70000000E+00  1.30000000E+00  1.30000000E+00  1.70000000E+00  1.70000000E+00
  1.70000000E+00  1.30000000E+00  1.70000000E+00  1.70000000E+00  1.70000000E+00
  1.30000000E+00  1.70000000E+00  1.30000000E+00  1.30000000E+00  1.30000000E+00
  1.70000000E+00  1.70000000E+00  1.30000000E+00  1.70000000E+00  1.70000000E+00
  1.30000000E+00  1.70000000E+00  1.30000000E+00  1.30000000E+00  1.30000000E+00
  1.70000000E+00  1.70000000E+00  1.70000000E+00  1.70000000E+00  1.70000000E+00
  1.30000000E+00  1.70000000E+00  1.70000000E+00  1.70000000E+00  1.30000000E+00
  1.70000000E+00  1.70000000E+00  1.30000000E+00  1.30000000E+00  1.70000000E+00
  1.70000000E+00  1.70000000E+00  1.30000000E+00  1.70000000E+00  1.70000000E+00
  1.70000000E+00  1.30000000E+00  1.70000000E+00  1.30000000E+00  1.30000000E+00
  1.30000000E+00  1.70000000E+00  1.70000000E+00  1.30000000E+00  1.70000000E+00
  1.70000000E+00  1.30000000E+00  1.70000000E+00  1.30000000E+00  1.30000000E+00
  1.30000000E+00  1.70000000E+00  1.70000000E+00  1.70000000E+00  1.70000000E+00
  1.70000000E+00  1.30000000E+00  1.70000000E+00  1.70000000E+00  1.70000000E+00
  1.30000000E+00  1.70000000E+00  1.70000000E+00  1.30000000E+00  1.30000000E+00
  1.70000000E+00  1.70000000E+00  1.70000000E+00  1.30000000E+00  1.70000000E+00
  1.70000000E+00  1.70000000E+00  1.30000000E+00  1.70000000E+00  1.30000000E+00
  1.30000000E+00  1.30000000E+00  1.70000000E+00  1.70000000E+00  1.30000000E+00
  1.70000000E+00  1.70000000E+00  1.30000000E+00  1.70000000E+00  1.30000000E+00
  1.30000000E+00  1.30000000E+00  1.70000000E+00  1.70000000E+00  1.70000000E+00
  1.70000000E+00  1.70000000E+00  1.30000000E+00  1.70000000E+00  1.70000000E+00
  1.70000000E+00  1.30000000E+00  1.70000000E+00  1.70000000E+00  1.30000000E+00
  1.30000000E+00  1.70000000E+00  1.70000000E+00  1.70000000E+00  1.30000000E+00
  1.70000000E+00  1.70000000E+00  1.70000000E+00  1.30000000E+00  1.70000000E+00
  1.30000000E+00  1.30000000E+00  1.30000000E+00  1.70000000E+00  1.70000000E+00
  1.30000000E+00  1.70000000E+00  1.70000000E+00  1.30000000E+00  1.70000000E+00
  1.30000000E+00  1.30000000E+00  1.30000000E+00  1.70000000E+00  1.70000000E+00
  1.70000000E+00  1.70000000E+00  1.70000000E+00  1.30000000E+00  1.70000000E+00
  1.70000000E+00  1.70000000E+00  1.30000000E+00  1.70000000E+00  1.70000000E+00
  1.30000000E+00  1.30000000E+00  1.70000000E+00  1.70000000E+00  1.70000000E+00
  1.30000000E+00  1.70000000E+00  1.70000000E+00  1.70000000E+00  1.30000000E+00
  1.70000000E+00  1.30000000E+00  1.30000000E+00  1.30000000E+00  1.70000000E+00
  1.70000000E+00  1.30000000E+00  1.70000000E+00  1.70000000E+00  1.30000000E+00
  1.70000000E+00  1.30000000E+00  1.30000000E+00  1.30000000E+00  1.70000000E+00
  1.70000000E+00  1.70000000E+00  1.70000000E+00  1.70000000E+00  1.30000000E+00
  1.70000000E+00  1.70000000E+00  1.70000000E+00  1.30000000E+00  1.70000000E+00
  1.70000000E+00  1.30000000E+00  1.30000000E+00  1.70000000E+00  1.70000000E+00
  1.70000000E+00  1.30000000E+00  1.70000000E+00  1.70000000E+00  1.70000000E+00
  1.30000000E+00  1.70000000E+00  1.30000000E+00  1.30000000E+00  1.30000000E+00
  1.70000000E+00  1.70000000E+00  1.30000000E+00  1.70000000E+00  1.70000000E+00
  1.30000000E+00  1.70000000E+00  1.30000000E+00  1.30000000E+00  1.30000000E+00
  1.70000000E+00  1.70000000E+00  1.70000000E+00  1.70000000E+00  1.70000000E+00
  1.30000000E+00  1.70000000E+00  1.70000000E+00  1.70000000E+00  1.30000000E+00
  1.70000000E+00  1.70000000E+00  1.30000000E+00  1.30000000E+00  1.70000000E+00
  1.70000000E+00  1.70000000E+00  1.30000000E+00  1.70000000E+00  1.70000000E+00
  1.70000000E+00  1.30000000E+00  1.70000000E+00  1.30000000E+00  1.30000000E+00
  1.30000000E+00  1.70000000E+00  1.70000000E+00  1.30000000E+00  1.70000000E+00
  1.70000000E+00  1.30000000E+00  1.70000000E+00  1.30000000E+00  1.30000000E+00
  1.30000000E+00  1.70000000E+00  1.70000000E+00  1.70000000E+00  1.70000000E+00
  1.70000000E+00  1.30000000E+00  1.70000000E+00  1.70000000E+00  1.70000000E+00
  1.30000000E+00  1.70000000E+00  1.70000000E+00  1.30000000E+00  1.30000000E+00
  1.70000000E+00  1.70000000E+00  1.70000000E+00  1.30000000E+00  1.70000000E+00
  1.70000000E+00  1.70000000E+00  1.30000000E+00  1.70000000E+00  1.30000000E+00
  1.30000000E+00  1.30000000E+00  1.70000000E+00  1.70000000E+00  1.30000000E+00
  1.70000000E+00  1.70000000E+00  1.30000000E+00  1.70000000E+00  1.30000000E+00
  1.30000000E+00  1.30000000E+00  1.70000000E+00  1.70000000E+00  1.70000000E+00
  1.70000000E+00  1.70000000E+00  1.30000000E+00  1.70000000E+00  1.70000000E+00
  1.70000000E+00  1.30000000E+00  1.70000000E+00  1.70000000E+00  1.30000000E+00
  1.30000000E+00  1.70000000E+00  1.70000000E+00  1.70000000E+00  1.30000000E+00
  1.70000000E+00  1.70000000E+00  1.70000000E+00  1.30000000E+00  1.70000000E+00
  1.30000000E+00  1.30000000E+00  1.30000000E+00  1.70000000E+00  1.70000000E+00
  1.30000000E+00  1.70000000E+00  1.70000000E+00  1.30000000E+00  1.70000000E+00
  1.30000000E+00  1.30000000E+00  1.30000000E+00  1.70000000E+00  1.70000000E+00
  1.70000000E+00  1.70000000E+00  1.70000000E+00  1.30000000E+00  1.70000000E+00
  1.70000000E+00  1.70000000E+00  1.30000000E+00  1.70000000E+00  1.70000000E+00
  1.30000000E+00  1.30000000E+00  1.70000000E+00  1.70000000E+00  1.70000000E+00
  1.30000000E+00  1.70000000E+00  1.70000000E+00  1.70000000E+00  1.30000000E+00
  1.70000000E+00  1.30000000E+00  1.30000000E+00  1.30000000E+00  1.70000000E+00
  1.70000000E+00  1.30000000E+00  1.70000000E+00  1.70000000E+00  1.30000000E+00
  1.70000000E+00  1.30000000E+00  1.30000000E+00  1.30000000E+00  1.70000000E+00
  1.70000000E+00  1.70000000E+00  1.70000000E+00  1.70000000E+00  1.30000000E+00
  1.70000000E+00  1.70000000E+00  1.70000000E+00  1.30000000E+00  1.70000000E+00
  1.70000000E+00  1.30000000E+00  1.30000000E+00  1.70000000E+00  1.70000000E+00
  1.70000000E+00  1.30000000E+00  1.70000000E+00  1.70000000E+00  1.70000000E+00
  1.30000000E+00  1.70000000E+00  1.30000000E+00  1.30000000E+00  1.30000000E+00
  1.70000000E+00  1.70000000E+00  1.30000000E+00  1.70000000E+00  1.70000000E+00
  1.30000000E+00  1.70000000E+00  1.30000000E+00  1.30000000E+00  1.30000000E+00
  1.70000000E+00  1.70000000E+00  1.70000000E+00  1.70000000E+00  1.70000000E+00
  1.30000000E+00  1.70000000E+00  1.70000000E+00  1.70000000E+00  1.30000000E+00
  1.70000000E+00  1.70000000E+00  1.30000000E+00  1.30000000E+00  1.70000000E+00
  1.70000000E+00  1.70000000E+00  1.30000000E+00  1.70000000E+00  1.70000000E+00
  1.70000000E+00  1.30000000E+00  1.70000000E+00  1.30000000E+00  1.30000000E+00
  1.30000000E+00  1.70000000E+00  1.70000000E+00  1.30000000E+00  1.70000000E+00
  1.70000000E+00  1.30000000E+00  1.70000000E+00  1.30000000E+00  1.30000000E+00
  1.30000000E+00  1.70000000E+00  1.70000000E+00  1.70000000E+00  1.70000000E+00
  1.70000000E+00  1.30000000E+00  1.70000000E+00  1.70000000E+00  1.70000000E+00
  1.30000000E+00  1.70000000E+00  1.70000000E+00  1.30000000E+00  1.30000000E+00
  1.70000000E+00  1.70000000E+00  1.70000000E+00  1.30000000E+00  1.70000000E+00
  1.70000000E+00  1.70000000E+00  1.30000000E+00  1.70000000E+00  1.30000000E+00
  1.30000000E+00  1.30000000E+00  1.70000000E+00  1.70000000E+00  1.30000000E+00
  1.70000000E+00  1.70000000E+00  1.30000000E+00  1.70000000E+00  1.30000000E+00
  1.30000000E+00  1.30000000E+00  1.70000000E+00  1.70000000E+00  1.70000000E+00
  1.70000000E+00  1.70000000E+00  1.30000000E+00  1.70000000E+00  1.70000000E+00
  1.70000000E+00  1.30000000E+00  1.70000000E+00  1.70000000E+00  1.30000000E+00
  1.30000000E+00  1.70000000E+00  1.70000000E+00  1.70000000E+00  1.30000000E+00
  1.70000000E+00  1.70000000E+00  1.70000000E+00  1.30000000E+00  1.70000000E+00
  1.30000000E+00  1.30000000E+00  1.30000000E+00  1.70000000E+00  1.70000000E+00
  1.30000000E+00  1.70000000E+00  1.70000000E+00  1.30000000E+00  1.70000000E+00
  1.30000000E+00  1.30000000E+00  1.30000000E+00  1.70000000E+00  1.70000000E+00
  1.70000000E+00  1.70000000E+00  1.70000000E+00  1.30000000E+00  1.70000000E+00
  1.70000000E+00  1.70000000E+00  1.30000000E+00  1.70000000E+00  1.70000000E+00
  1.30000000E+00  1.30000000E+00  1.70000000E+00  1.70000000E+00  1.70000000E+00
  1.30000000E+00  1.70000000E+00  1.70000000E+00  1.70000000E+00  1.30000000E+00
  1.70000000E+00  1.30000000E+00  1.30000000E+00  1.30000000E+00  1.70000000E+00
  1.70000000E+00  1.30000000E+00  1.70000000E+00  1.70000000E+00  1.30000000E+00
  1.70000000E+00  1.30000000E+00  1.30000000E+00  1.30000000E+00  1.70000000E+00
  1.70000000E+00  1.70000000E+00  1.70000000E+00  1.70000000E+00  1.30000000E+00
  1.70000000E+00  1.70000000E+00  1.70000000E+00  1.30000000E+00  1.70000000E+00
  1.70000000E+00  1.30000000E+00  1.30000000E+00  1.70000000E+00  1.70000000E+00
  1.70000000E+00  1.30000000E+00  1.70000000E+00  1.70000000E+00  1.70000000E+00
  1.30000000E+00  1.70000000E+00  1.30000000E+00  1.30000000E+00  1.30000000E+00
  1.70000000E+00  1.70000000E+00  1.30000000E+00  1.70000000E+00  1.70000000E+00
  1.30000000E+00  1.70000000E+00  1.30000000E+00  1.30000000E+00  1.30000000E+00
  1.70000000E+00  1.70000000E+00  1.70000000E+00  1.70000000E+00  1.70000000E+00
  1.30000000E+00  1.70000000E+00  1.70000000E+00  1.70000000E+00  1.30000000E+00
  1.70000000E+00  1.70000000E+00  1.30000000E+00  1.30000000E+00  1.70000000E+00
  1.70000000E+00  1.70000000E+00  1.30000000E+00  1.70000000E+00  1.70000000E+00
  1.70000000E+00  1.30000000E+00  1.70000000E+00  1.30000000E+00  1.30000000E+00
  1.30000000E+00  1.70000000E+00  1.70000000E+00  1.30000000E+00  1.70000000E+00
  1.70000000E+00  1.30000000E+00  1.70000000E+00  1.30000000E+00  1.30000000E+00
  1.30000000E+00  1.70000000E+00  1.70000000E+00  1.70000000E+00  1.70000000E+00
  1.70000000E+00  1.30000000E+00  1.70000000E+00  1.70000000E+00  1.70000000E+00
  1.30000000E+00  1.70000000E+00  1.70000000E+00  1.30000000E+00  1.30000000E+00
  1.70000000E+00  1.70000000E+00  1.70000000E+00  1.30000000E+00  1.70000000E+00
  1.70000000E+00  1.70000000E+00  1.30000000E+00  1.70000000E+00  1.30000000E+00
  1.30000000E+00  1.30000000E+00  1.70000000E+00  1.70000000E+00  1.30000000E+00
  1.70000000E+00  1.70000000E+00  1.30000000E+00  1.70000000E+00  1.30000000E+00
  1.30000000E+00  1.30000000E+00  1.70000000E+00  1.70000000E+00  1.70000000E+00
  1.70000000E+00  1.70000000E+00  1.30000000E+00  1.70000000E+00  1.70000000E+00
  1.70000000E+00  1.30000000E+00  1.70000000E+00  1.70000000E+00  1.30000000E+00
  1.30000000E+00  1.70000000E+00  1.70000000E+00  1.70000000E+00  1.30000000E+00
  1.70000000E+00  1.70000000E+00  1.70000000E+00  1.30000000E+00  1.70000000E+00
  1.30000000E+00  1.30000000E+00  1.30000000E+00  1.70000000E+00  1.70000000E+00
  1.30000000E+00  1.70000000E+00  1.70000000E+00  1.30000000E+00  1.70000000E+00
  1.30000000E+00  1.30000000E+00  1.30000000E+00  1.70000000E+00  1.70000000E+00
  1.70000000E+00  1.70000000E+00  1.70000000E+00  1.30000000E+00  1.70000000E+00
  1.70000000E+00  1.70000000E+00  1.30000000E+00  1.70000000E+00  1.70000000E+00
  1.30000000E+00  1.30000000E+00  1.70000000E+00  1.70000000E+00  1.70000000E+00
  1.30000000E+00  1.70000000E+00  1.70000000E+00  1.70000000E+00  1.30000000E+00
  1.70000000E+00  1.30000000E+00  1.30000000E+00  1.30000000E+00  1.70000000E+00
  1.70000000E+00  1.30000000E+00  1.70000000E+00  1.70000000E+00  1.30000000E+00
  1.70000000E+00  1.30000000E+00  1.30000000E+00  1.30000000E+00  1.70000000E+00
  1.70000000E+00  1.70000000E+00  1.70000000E+00  1.70000000E+00  1.30000000E+00
  1.70000000E+00  1.70000000E+00  1.70000000E+00  1.30000000E+00  1.70000000E+00
  1.70000000E+00  1.30000000E+00  1.30000000E+00  1.70000000E+00  1.70000000E+00
  1.70000000E+00  1.30000000E+00  1.70000000E+00  1.70000000E+00  1.70000000E+00
  1.30000000E+00  1.70000000E+00  1.30000000E+00  1.30000000E+00  1.30000000E+00
  1.70000000E+00  1.70000000E+00  1.30000000E+00  1.70000000E+00  1.70000000E+00
  1.30000000E+00  1.70000000E+00  1.30000000E+00  1.30000000E+00  1.30000000E+00
  1.70000000E+00  1.70000000E+00  1.70000000E+00  1.70000000E+00  1.70000000E+00
  1.30000000E+00  1.70000000E+00  1.70000000E+00  1.70000000E+00  1.30000000E+00
  1.70000000E+00  1.70000000E+00  1.30000000E+00  1.30000000E+00  1.70000000E+00
  1.70000000E+00  1.70000000E+00  1.30000000E+00  1.70000000E+00  1.70000000E+00
  1.70000000E+00  1.30000000E+00  1.70000000E+00  1.30000000E+00  1.30000000E+00
  1.30000000E+00  1.70000000E+00  1.70000000E+00  1.30000000E+00  1.70000000E+00
  1.70000000E+00  1.30000000E+00  1.70000000E+00  1.30000000E+00  1.30000000E+00
  1.30000000E+00  1.70000000E+00  1.70000000E+00  1.70000000E+00  1.70000000E+00
  1.70000000E+00  1.30000000E+00  1.70000000E+00  1.70000000E+00  1.70000000E+00
  1.30000000E+00  1.70000000E+00  1.70000000E+00  1.30000000E+00  1.30000000E+00
  1.70000000E+00  1.70000000E+00  1.70000000E+00  1.30000000E+00  1.70000000E+00
  1.70000000E+00  1.70000000E+00  1.30000000E+00  1.70000000E+00  1.30000000E+00
  1.30000000E+00  1.30000000E+00  1.70000000E+00  1.70000000E+00  1.30000000E+00
  1.70000000E+00  1.70000000E+00  1.30000000E+00  1.70000000E+00  1.30000000E+00
  1.30000000E+00  1.30000000E+00  1.70000000E+00  1.70000000E+00  1.70000000E+00
  1.70000000E+00  1.70000000E+00  1.30000000E+00  1.70000000E+00  1.70000000E+00
  1.70000000E+00  1.30000000E+00  1.70000000E+00  1.70000000E+00  1.30000000E+00
  1.30000000E+00  1.70000000E+00  1.70000000E+00  1.70000000E+00  1.30000000E+00
  1.70000000E+00  1.70000000E+00  1.70000000E+00  1.30000000E+00  1.70000000E+00
  1.30000000E+00  1.30000000E+00  1.30000000E+00  1.70000000E+00  1.70000000E+00
  1.30000000E+00  1.70000000E+00  1.70000000E+00  1.30000000E+00  1.70000000E+00
  1.30000000E+00  1.30000000E+00  1.30000000E+00  1.70000000E+00  1.70000000E+00
  1.70000000E+00  1.70000000E+00  1.70000000E+00  1.30000000E+00  1.70000000E+00
  1.70000000E+00  1.70000000E+00  1.30000000E+00  1.70000000E+00  1.70000000E+00
  1.30000000E+00  1.30000000E+00  1.70000000E+00  1.70000000E+00  1.70000000E+00
  1.30000000E+00  1.70000000E+00  1.70000000E+00  1.70000000E+00  1.30000000E+00
  1.70000000E+00  1.30000000E+00  1.30000000E+00  1.30000000E+00  1.70000000E+00
  1.70000000E+00  1.30000000E+00  1.70000000E+00  1.70000000E+00  1.30000000E+00
  1.70000000E+00  1.30000000E+00  1.30000000E+00  1.30000000E+00  1.70000000E+00
  1.70000000E+00  1.70000000E+00  1.70000000E+00  1.70000000E+00  1.30000000E+00
  1.70000000E+00  1.70000000E+00  1.70000000E+00  1.30000000E+00  1.70000000E+00
  1.70000000E+00  1.30000000E+00  1.30000000E+00  1.70000000E+00  1.70000000E+00
  1.70000000E+00  1.30000000E+00  1.70000000E+00  1.70000000E+00  1.70000000E+00
  1.30000000E+00  1.70000000E+00  1.30000000E+00  1.30000000E+00  1.30000000E+00
  1.70000000E+00  1.70000000E+00  1.30000000E+00  1.70000000E+00  1.70000000E+00
  1.30000000E+00  1.70000000E+00  1.30000000E+00  1.30000000E+00  1.30000000E+00
  1.70000000E+00  1.70000000E+00  1.70000000E+00  1.70000000E+00  1.70000000E+00
  1.30000000E+00  1.70000000E+00  1.70000000E+00  1.70000000E+00  1.30000000E+00
  1.70000000E+00  1.70000000E+00  1.30000000E+00  1.30000000E+00  1.70000000E+00
  1.70000000E+00  1.70000000E+00  1.30000000E+00  1.70000000E+00  1.70000000E+00
  1.70000000E+00  1.30000000E+00  1.70000000E+00  1.30000000E+00  1.30000000E+00
  1.30000000E+00  1.70000000E+00  1.70000000E+00  1.30000000E+00  1.70000000E+00
  1.70000000E+00  1.30000000E+00  1.70000000E+00  1.30000000E+00  1.30000000E+00
  1.30000000E+00  1.70000000E+00  1.70000000E+00  1.70000000E+00  1.70000000E+00
  1.70000000E+00  1.30000000E+00  1.70000000E+00  1.70000000E+00  1.70000000E+00
  1.30000000E+00  1.70000000E+00  1.70000000E+00  1.30000000E+00  1.30000000E+00
  1.70000000E+00  1.70000000E+00  1.70000000E+00  1.30000000E+00  1.70000000E+00
  1.70000000E+00  1.70000000E+00  1.30000000E+00  1.70000000E+00  1.30000000E+00
  1.30000000E+00  1.30000000E+00  1.70000000E+00  1.70000000E+00  1.30000000E+00
  1.70000000E+00  1.70000000E+00  1.30000000E+00  1.70000000E+00  1.30000000E+00
  1.30000000E+00  1.30000000E+00  1.70000000E+00  1.70000000E+00  1.70000000E+00
  1.70000000E+00  1.70000000E+00  1.30000000E+00  1.70000000E+00  1.70000000E+00
  1.70000000E+00  1.30000000E+00  1.70000000E+00  1.70000000E+00  1.30000000E+00
  1.30000000E+00  1.70000000E+00  1.70000000E+00  1.70000000E+00  1.30000000E+00
  1.70000000E+00  1.70000000E+00  1.70000000E+00  1.30000000E+00  1.70000000E+00
  1.30000000E+00  1.30000000E+00  1.30000000E+00  1.70000000E+00  1.70000000E+00
  1.30000000E+00  1.70000000E+00  1.70000000E+00  1.30000000E+00  1.70000000E+00
  1.30000000E+00  1.30000000E+00  1.30000000E+00  1.70000000E+00  1.70000000E+00
  1.70000000E+00  1.70000000E+00  1.70000000E+00  1.30000000E+00  1.70000000E+00
  1.70000000E+00  1.70000000E+00  1.30000000E+00  1.70000000E+00  1.70000000E+00
  1.30000000E+00  1.30000000E+00  1.70000000E+00  1.70000000E+00  1.70000000E+00
  1.30000000E+00  1.70000000E+00  1.70000000E+00  1.70000000E+00  1.30000000E+00
  1.70000000E+00  1.30000000E+00  1.30000000E+00  1.30000000E+00  1.70000000E+00
  1.70000000E+00  1.30000000E+00  1.70000000E+00  1.70000000E+00  1.30000000E+00
  1.70000000E+00  1.30000000E+00  1.30000000E+00  1.30000000E+00  1.70000000E+00
  1.70000000E+00  1.70000000E+00  1.70000000E+00  1.70000000E+00  1.30000000E+00
  1.70000000E+00  1.70000000E+00  1.70000000E+00  1.30000000E+00  1.70000000E+00
  1.70000000E+00  1.30000000E+00  1.30000000E+00  1.70000000E+00  1.70000000E+00
  1.70000000E+00  1.30000000E+00  1.70000000E+00  1.70000000E+00  1.70000000E+00
  1.30000000E+00  1.70000000E+00  1.30000000E+00  1.30000000E+00  1.30000000E+00
  1.70000000E+00  1.70000000E+00  1.30000000E+00  1.70000000E+00  1.70000000E+00
  1.30000000E+00  1.70000000E+00  1.30000000E+00  1.30000000E+00  1.30000000E+00
  1.70000000E+00  1.70000000E+00  1.70000000E+00  1.70000000E+00  1.70000000E+00
  1.30000000E+00  1.70000000E+00  1.70000000E+00  1.70000000E+00  1.30000000E+00
  1.70000000E+00  1.70000000E+00  1.30000000E+00  1.30000000E+00  1.70000000E+00
  1.70000000E+00  1.70000000E+00  1.30000000E+00  1.70000000E+00  1.70000000E+00
  1.70000000E+00  1.30000000E+00  1.70000000E+00  1.30000000E+00  1.30000000E+00
  1.30000000E+00  1.70000000E+00  1.70000000E+00  1.30000000E+00  1.70000000E+00
  1.70000000E+00  1.30000000E+00  1.70000000E+00  1.30000000E+00  1.30000000E+00
  1.30000000E+00  1.70000000E+00  1.70000000E+00  1.70000000E+00  1.70000000E+00
  1.70000000E+00  1.30000000E+00  1.70000000E+00  1.70000000E+00  1.70000000E+00
  1.30000000E+00  1.70000000E+00  1.70000000E+00  1.30000000E+00  1.30000000E+00
  1.70000000E+00  1.70000000E+00  1.70000000E+00  1.30000000E+00  1.70000000E+00
  1.70000000E+00  1.70000000E+00  1.30000000E+00  1.70000000E+00  1.30000000E+00
  1.30000000E+00  1.30000000E+00  1.70000000E+00  1.70000000E+00  1.30000000E+00
  1.70000000E+00  1.70000000E+00  1.30000000E+00  1.70000000E+00  1.30000000E+00
  1.30000000E+00  1.30000000E+00  1.70000000E+00  1.70000000E+00  1.70000000E+00
  1.70000000E+00  1.70000000E+00  1.30000000E+00  1.70000000E+00  1.70000000E+00
  1.70000000E+00  1.30000000E+00  1.70000000E+00  1.70000000E+00  1.30000000E+00
  1.30000000E+00  1.70000000E+00  1.70000000E+00  1.70000000E+00  1.30000000E+00
  1.70000000E+00  1.70000000E+00  1.70000000E+00  1.30000000E+00  1.70000000E+00
  1.30000000E+00  1.30000000E+00  1.30000000E+00  1.70000000E+00  1.70000000E+00
  1.30000000E+00  1.70000000E+00  1.70000000E+00  1.30000000E+00  1.70000000E+00
  1.30000000E+00  1.30000000E+00  1.30000000E+00  1.70000000E+00  1.70000000E+00
  1.70000000E+00  1.70000000E+00  1.70000000E+00  1.30000000E+00  1.70000000E+00
  1.70000000E+00  1.70000000E+00  1.30000000E+00  1.70000000E+00  1.70000000E+00
  1.30000000E+00  1.30000000E+00  1.70000000E+00  1.70000000E+00  1.70000000E+00
  1.30000000E+00  1.70000000E+00  1.70000000E+00  1.70000000E+00  1.30000000E+00
  1.70000000E+00  1.30000000E+00  1.30000000E+00  1.30000000E+00  1.70000000E+00
  1.70000000E+00  1.30000000E+00  1.70000000E+00  1.70000000E+00  1.30000000E+00
  1.70000000E+00  1.30000000E+00  1.30000000E+00  1.30000000E+00  1.70000000E+00
  1.70000000E+00  1.70000000E+00  1.70000000E+00  1.70000000E+00  1.30000000E+00
  1.70000000E+00  1.70000000E+00  1.70000000E+00  1.30000000E+00  1.70000000E+00
  1.70000000E+00  1.30000000E+00  1.30000000E+00  1.70000000E+00  1.70000000E+00
  1.70000000E+00  1.30000000E+00  1.70000000E+00  1.70000000E+00  1.70000000E+00
  1.30000000E+00  1.70000000E+00  1.30000000E+00  1.30000000E+00  1.30000000E+00
  1.70000000E+00  1.70000000E+00  1.30000000E+00  1.70000000E+00  1.70000000E+00
  1.30000000E+00  1.70000000E+00  1.30000000E+00  1.30000000E+00  1.30000000E+00
  1.70000000E+00  1.70000000E+00  1.70000000E+00  1.70000000E+00  1.70000000E+00
  1.30000000E+00  1.70000000E+00  1.70000000E+00  1.70000000E+00  1.30000000E+00
  1.70000000E+00  1.70000000E+00  1.30000000E+00  1.30000000E+00  1.70000000E+00
  1.70000000E+00  1.70000000E+00  1.30000000E+00  1.70000000E+00  1.70000000E+00
  1.70000000E+00  1.30000000E+00  1.70000000E+00  1.30000000E+00  1.30000000E+00
  1.30000000E+00  1.70000000E+00  1.70000000E+00  1.30000000E+00  1.70000000E+00
  1.70000000E+00  1.30000000E+00  1.70000000E+00  1.30000000E+00  1.30000000E+00
  1.30000000E+00  1.70000000E+00  1.70000000E+00  1.70000000E+00  1.70000000E+00
  1.70000000E+00  1.30000000E+00  1.70000000E+00  1.70000000E+00  1.70000000E+00
  1.30000000E+00  1.70000000E+00  1.70000000E+00  1.30000000E+00  1.30000000E+00
  1.70000000E+00  1.70000000E+00  1.70000000E+00  1.30000000E+00  1.70000000E+00
  1.70000000E+00  1.70000000E+00  1.30000000E+00  1.70000000E+00  1.30000000E+00
  1.30000000E+00  1.30000000E+00  1.70000000E+00  1.70000000E+00  1.30000000E+00
  1.70000000E+00  1.70000000E+00  1.30000000E+00  1.70000000E+00  1.30000000E+00
  1.30000000E+00  1.30000000E+00  1.70000000E+00  1.70000000E+00  1.70000000E+00
  1.70000000E+00  1.70000000E+00  1.30000000E+00  1.70000000E+00  1.70000000E+00
  1.70000000E+00  1.30000000E+00  1.70000000E+00  1.70000000E+00  1.30000000E+00
  1.30000000E+00  1.70000000E+00  1.70000000E+00  1.70000000E+00  1.30000000E+00
  1.70000000E+00  1.70000000E+00  1.70000000E+00  1.30000000E+00  1.70000000E+00
  1.30000000E+00  1.30000000E+00  1.30000000E+00  1.70000000E+00  1.70000000E+00
  1.30000000E+00  1.70000000E+00  1.70000000E+00  1.30000000E+00  1.70000000E+00
  1.30000000E+00  1.30000000E+00  1.30000000E+00  1.70000000E+00  1.70000000E+00
  1.70000000E+00  1.70000000E+00  1.70000000E+00  1.30000000E+00  1.70000000E+00
  1.70000000E+00  1.70000000E+00  1.30000000E+00  1.70000000E+00  1.70000000E+00
  1.30000000E+00  1.30000000E+00  1.70000000E+00  1.70000000E+00  1.70000000E+00
  1.30000000E+00  1.70000000E+00  1.70000000E+00  1.70000000E+00  1.30000000E+00
  1.70000000E+00  1.30000000E+00  1.30000000E+00  1.30000000E+00  1.70000000E+00
  1.70000000E+00  1.30000000E+00  1.70000000E+00  1.70000000E+00  1.30000000E+00
  1.70000000E+00  1.30000000E+00  1.30000000E+00  1.30000000E+00  1.70000000E+00
  1.70000000E+00  1.70000000E+00  1.70000000E+00  1.70000000E+00  1.30000000E+00
  1.70000000E+00  1.70000000E+00  1.70000000E+00  1.30000000E+00  1.70000000E+00
  1.70000000E+00  1.30000000E+00  1.30000000E+00  1.70000000E+00  1.70000000E+00
  1.70000000E+00  1.30000000E+00  1.70000000E+00  1.70000000E+00  1.70000000E+00
  1.30000000E+00  1.70000000E+00  1.30000000E+00  1.30000000E+00  1.30000000E+00
  1.70000000E+00  1.70000000E+00  1.30000000E+00  1.70000000E+00  1.70000000E+00
  1.30000000E+00  1.70000000E+00  1.30000000E+00  1.30000000E+00  1.30000000E+00
  1.70000000E+00  1.70000000E+00  1.70000000E+00  1.70000000E+00  1.70000000E+00
  1.30000000E+00  1.70000000E+00  1.70000000E+00  1.70000000E+00  1.30000000E+00
  1.70000000E+00  1.70000000E+00  1.30000000E+00  1.30000000E+00  1.70000000E+00
  1.70000000E+00  1.70000000E+00  1.30000000E+00  1.70000000E+00  1.70000000E+00
  1.70000000E+00  1.30000000E+00  1.70000000E+00  1.30000000E+00  1.30000000E+00
  1.30000000E+00  1.70000000E+00  1.70000000E+00  1.30000000E+00  1.70000000E+00
  1.70000000E+00  1.30000000E+00  1.70000000E+00  1.30000000E+00  1.30000000E+00
  1.30000000E+00  1.70000000E+00  1.70000000E+00  1.70000000E+00  1.70000000E+00
  1.70000000E+00  1.30000000E+00  1.70000000E+00  1.70000000E+00  1.70000000E+00
  1.30000000E+00  1.70000000E+00  1.70000000E+00  1.30000000E+00  1.30000000E+00
  1.70000000E+00  1.70000000E+00  1.70000000E+00  1.30000000E+00  1.70000000E+00
  1.70000000E+00  1.70000000E+00  1.30000000E+00  1.70000000E+00  1.30000000E+00
  1.30000000E+00  1.30000000E+00  1.70000000E+00  1.70000000E+00  1.30000000E+00
  1.70000000E+00  1.70000000E+00  1.30000000E+00  1.70000000E+00  1.30000000E+00
  1.30000000E+00  1.30000000E+00  1.70000000E+00  1.70000000E+00  1.70000000E+00
  1.70000000E+00  1.70000000E+00  1.30000000E+00  1.70000000E+00  1.70000000E+00
  1.70000000E+00  1.30000000E+00  1.70000000E+00  1.70000000E+00  1.30000000E+00
  1.30000000E+00  1.70000000E+00  1.70000000E+00  1.70000000E+00  1.30000000E+00
  1.70000000E+00  1.70000000E+00  1.70000000E+00  1.30000000E+00  1.70000000E+00
  1.30000000E+00  1.30000000E+00  1.30000000E+00  1.70000000E+00  1.70000000E+00
  1.30000000E+00  1.70000000E+00  1.70000000E+00  1.30000000E+00  1.70000000E+00
  1.30000000E+00  1.30000000E+00  1.30000000E+00  1.70000000E+00  1.70000000E+00
  1.70000000E+00  1.70000000E+00  1.70000000E+00  1.30000000E+00  1.70000000E+00
  1.70000000E+00  1.70000000E+00  1.30000000E+00  1.70000000E+00  1.70000000E+00
  1.30000000E+00  1.30000000E+00  1.70000000E+00  1.70000000E+00  1.70000000E+00
  1.30000000E+00  1.70000000E+00  1.70000000E+00  1.70000000E+00  1.30000000E+00
  1.70000000E+00  1.30000000E+00  1.30000000E+00  1.30000000E+00  1.70000000E+00
  1.70000000E+00  1.30000000E+00  1.70000000E+00  1.70000000E+00  1.30000000E+00
  1.70000000E+00  1.30000000E+00  1.30000000E+00  1.30000000E+00  1.70000000E+00
  1.70000000E+00  1.70000000E+00  1.70000000E+00  1.70000000E+00  1.30000000E+00
  1.70000000E+00  1.70000000E+00  1.70000000E+00  1.30000000E+00  1.70000000E+00
  1.70000000E+00  1.30000000E+00  1.30000000E+00  1.70000000E+00  1.70000000E+00
  1.70000000E+00  1.30000000E+00  1.70000000E+00  1.70000000E+00  1.70000000E+00
  1.30000000E+00  1.70000000E+00  1.30000000E+00  1.30000000E+00  1.30000000E+00
  1.70000000E+00  1.70000000E+00  1.30000000E+00  1.70000000E+00  1.70000000E+00
  1.30000000E+00  1.70000000E+00  1.30000000E+00  1.30000000E+00  1.30000000E+00
  1.70000000E+00  1.70000000E+00  1.70000000E+00  1.70000000E+00  1.70000000E+00
  1.30000000E+00  1.70000000E+00  1.70000000E+00  1.70000000E+00  1.30000000E+00
  1.70000000E+00  1.70000000E+00  1.30000000E+00  1.30000000E+00  1.70000000E+00
  1.70000000E+00  1.70000000E+00  1.30000000E+00  1.70000000E+00  1.70000000E+00
  1.70000000E+00  1.30000000E+00  1.70000000E+00  1.30000000E+00  1.30000000E+00
  1.30000000E+00  1.70000000E+00  1.70000000E+00  1.30000000E+00  1.70000000E+00
  1.70000000E+00  1.30000000E+00  1.70000000E+00  1.30000000E+00  1.30000000E+00
  1.30000000E+00  1.70000000E+00  1.70000000E+00  1.70000000E+00  1.70000000E+00
  1.70000000E+00  1.30000000E+00  1.70000000E+00  1.70000000E+00  1.70000000E+00
  1.30000000E+00  1.70000000E+00  1.70000000E+00  1.30000000E+00  1.30000000E+00
  1.70000000E+00  1.70000000E+00  1.70000000E+00  1.30000000E+00  1.70000000E+00
  1.70000000E+00  1.70000000E+00  1.30000000E+00  1.70000000E+00  1.30000000E+00
  1.30000000E+00  1.30000000E+00  1.70000000E+00  1.70000000E+00  1.30000000E+00
  1.70000000E+00  1.70000000E+00  1.30000000E+00  1.70000000E+00  1.30000000E+00
  1.30000000E+00  1.30000000E+00  1.70000000E+00  1.70000000E+00  1.70000000E+00
  1.70000000E+00  1.70000000E+00  1.30000000E+00  1.70000000E+00  1.70000000E+00
  1.70000000E+00  1.30000000E+00  1.70000000E+00  1.70000000E+00  1.30000000E+00
  1.30000000E+00  1.70000000E+00  1.70000000E+00  1.70000000E+00  1.30000000E+00
  1.70000000E+00  1.70000000E+00  1.70000000E+00  1.30000000E+00  1.70000000E+00
  1.30000000E+00  1.30000000E+00  1.30000000E+00  1.70000000E+00  1.70000000E+00
  1.30000000E+00  1.70000000E+00  1.70000000E+00  1.30000000E+00  1.70000000E+00
  1.30000000E+00  1.30000000E+00  1.30000000E+00  1.70000000E+00  1.70000000E+00
  1.70000000E+00  1.70000000E+00  1.70000000E+00  1.30000000E+00  1.70000000E+00
  1.70000000E+00  1.70000000E+00  1.30000000E+00  1.70000000E+00  1.70000000E+00
  1.30000000E+00  1.30000000E+00  1.70000000E+00  1.70000000E+00  1.70000000E+00
  1.30000000E+00  1.70000000E+00  1.70000000E+00  1.70000000E+00  1.30000000E+00
  1.70000000E+00  1.30000000E+00  1.30000000E+00  1.30000000E+00  1.70000000E+00
  1.70000000E+00  1.30000000E+00  1.70000000E+00  1.70000000E+00  1.30000000E+00
  1.70000000E+00  1.30000000E+00  1.30000000E+00  1.30000000E+00  1.70000000E+00
  1.70000000E+00  1.70000000E+00  1.70000000E+00  1.70000000E+00  1.30000000E+00
  1.70000000E+00  1.70000000E+00  1.70000000E+00  1.30000000E+00  1.70000000E+00
  1.70000000E+00  1.30000000E+00  1.30000000E+00  1.70000000E+00  1.70000000E+00
  1.70000000E+00  1.30000000E+00  1.70000000E+00  1.70000000E+00  1.70000000E+00
  1.30000000E+00  1.70000000E+00  1.30000000E+00  1.30000000E+00  1.30000000E+00
  1.70000000E+00  1.70000000E+00  1.30000000E+00  1.70000000E+00  1.70000000E+00
  1.30000000E+00  1.70000000E+00  1.30000000E+00  1.30000000E+00  1.30000000E+00
  1.70000000E+00  1.70000000E+00  1.70000000E+00  1.70000000E+00  1.70000000E+00
  1.30000000E+00  1.70000000E+00  1.70000000E+00  1.70000000E+00  1.30000000E+00
  1.70000000E+00  1.70000000E+00  1.30000000E+00  1.30000000E+00  1.70000000E+00
  1.70000000E+00  1.70000000E+00  1.30000000E+00  1.70000000E+00  1.70000000E+00
  1.70000000E+00  1.30000000E+00  1.70000000E+00  1.30000000E+00  1.30000000E+00
  1.30000000E+00  1.70000000E+00  1.70000000E+00  1.30000000E+00  1.70000000E+00
  1.70000000E+00  1.30000000E+00  1.70000000E+00  1.30000000E+00  1.30000000E+00
  1.30000000E+00  1.70000000E+00  1.70000000E+00  1.70000000E+00  1.70000000E+00
  1.70000000E+00  1.30000000E+00  1.70000000E+00  1.70000000E+00  1.70000000E+00
  1.30000000E+00  1.70000000E+00  1.70000000E+00  1.30000000E+00  1.30000000E+00
  1.70000000E+00  1.70000000E+00  1.70000000E+00  1.30000000E+00  1.70000000E+00
  1.70000000E+00  1.70000000E+00  1.30000000E+00  1.70000000E+00  1.30000000E+00
  1.30000000E+00  1.30000000E+00  1.70000000E+00  1.70000000E+00  1.30000000E+00
  1.70000000E+00  1.70000000E+00  1.30000000E+00  1.70000000E+00  1.30000000E+00
  1.30000000E+00  1.30000000E+00  1.70000000E+00  1.70000000E+00  1.70000000E+00
  1.70000000E+00  1.70000000E+00  1.30000000E+00  1.70000000E+00  1.70000000E+00
  1.70000000E+00  1.30000000E+00  1.70000000E+00  1.70000000E+00  1.30000000E+00
  1.30000000E+00  1.70000000E+00  1.70000000E+00  1.70000000E+00  1.30000000E+00
  1.70000000E+00  1.70000000E+00  1.70000000E+00  1.30000000E+00  1.70000000E+00
  1.30000000E+00  1.30000000E+00  1.30000000E+00  1.70000000E+00  1.70000000E+00
  1.30000000E+00  1.70000000E+00  1.70000000E+00  1.30000000E+00  1.70000000E+00
  1.30000000E+00  1.30000000E+00  1.30000000E+00  1.70000000E+00  1.70000000E+00
  1.70000000E+00  1.70000000E+00  1.70000000E+00  1.30000000E+00  1.70000000E+00
  1.70000000E+00  1.70000000E+00  1.30000000E+00  1.70000000E+00  1.70000000E+00
  1.30000000E+00  1.30000000E+00  1.70000000E+00  1.70000000E+00  1.70000000E+00
  1.30000000E+00  1.70000000E+00  1.70000000E+00  1.70000000E+00  1.30000000E+00
  1.70000000E+00  1.30000000E+00  1.30000000E+00  1.30000000E+00  1.70000000E+00
  1.70000000E+00  1.30000000E+00  1.70000000E+00  1.70000000E+00  1.30000000E+00
  1.70000000E+00  1.30000000E+00  1.30000000E+00  1.30000000E+00  1.70000000E+00
  1.70000000E+00  1.70000000E+00  1.70000000E+00  1.70000000E+00  1.30000000E+00
  1.70000000E+00  1.70000000E+00  1.70000000E+00  1.30000000E+00  1.70000000E+00
  1.70000000E+00  1.30000000E+00  1.30000000E+00  1.70000000E+00  1.70000000E+00
  1.70000000E+00  1.30000000E+00  1.70000000E+00  1.70000000E+00  1.70000000E+00
  1.30000000E+00  1.70000000E+00  1.30000000E+00  1.30000000E+00  1.30000000E+00
  1.70000000E+00  1.70000000E+00  1.30000000E+00  1.70000000E+00  1.70000000E+00
  1.30000000E+00  1.70000000E+00  1.30000000E+00  1.30000000E+00  1.30000000E+00
  1.70000000E+00  1.70000000E+00  1.70000000E+00  1.70000000E+00  1.70000000E+00
  1.30000000E+00  1.70000000E+00  1.70000000E+00  1.70000000E+00  1.30000000E+00
  1.70000000E+00  1.70000000E+00  1.30000000E+00  1.30000000E+00  1.70000000E+00
  1.70000000E+00  1.70000000E+00  1.30000000E+00  1.70000000E+00  1.70000000E+00
  1.70000000E+00  1.30000000E+00  1.70000000E+00  1.30000000E+00  1.30000000E+00
  1.30000000E+00  1.70000000E+00  1.70000000E+00  1.30000000E+00  1.70000000E+00
  1.70000000E+00  1.30000000E+00  1.70000000E+00  1.30000000E+00  1.30000000E+00
  1.30000000E+00  1.70000000E+00  1.70000000E+00  1.70000000E+00  1.70000000E+00
  1.70000000E+00  1.30000000E+00  1.70000000E+00  1.70000000E+00  1.70000000E+00
  1.30000000E+00  1.70000000E+00  1.70000000E+00  1.30000000E+00  1.30000000E+00
  1.70000000E+00  1.70000000E+00  1.70000000E+00  1.30000000E+00  1.70000000E+00
  1.70000000E+00  1.70000000E+00  1.30000000E+00  1.70000000E+00  1.30000000E+00
  1.30000000E+00  1.30000000E+00  1.70000000E+00  1.70000000E+00  1.30000000E+00
  1.70000000E+00  1.70000000E+00  1.30000000E+00  1.70000000E+00  1.30000000E+00
  1.30000000E+00  1.30000000E+00  1.70000000E+00  1.70000000E+00  1.70000000E+00
  1.70000000E+00  1.70000000E+00  1.30000000E+00  1.70000000E+00  1.70000000E+00
  1.70000000E+00  1.30000000E+00  1.70000000E+00  1.70000000E+00  1.30000000E+00
  1.30000000E+00  1.70000000E+00  1.70000000E+00  1.70000000E+00  1.30000000E+00
  1.70000000E+00  1.70000000E+00  1.70000000E+00  1.30000000E+00  1.70000000E+00
  1.30000000E+00  1.30000000E+00  1.30000000E+00  1.70000000E+00  1.70000000E+00
  1.30000000E+00  1.70000000E+00  1.70000000E+00  1.30000000E+00  1.70000000E+00
  1.30000000E+00  1.30000000E+00  1.30000000E+00  1.70000000E+00  1.70000000E+00
  1.70000000E+00  1.70000000E+00  1.70000000E+00  1.30000000E+00  1.70000000E+00
  1.70000000E+00  1.70000000E+00  1.30000000E+00  1.70000000E+00  1.70000000E+00
  1.30000000E+00  1.30000000E+00  1.70000000E+00  1.70000000E+00  1.70000000E+00
  1.30000000E+00  1.70000000E+00  1.70000000E+00  1.70000000E+00  1.30000000E+00
  1.70000000E+00  1.30000000E+00  1.30000000E+00  1.30000000E+00  1.70000000E+00
  1.70000000E+00  1.30000000E+00  1.70000000E+00  1.70000000E+00  1.30000000E+00
  1.70000000E+00  1.30000000E+00  1.30000000E+00  1.30000000E+00  1.70000000E+00
  1.70000000E+00  1.70000000E+00  1.70000000E+00  1.70000000E+00  1.30000000E+00
  1.70000000E+00  1.70000000E+00  1.70000000E+00  1.30000000E+00  1.70000000E+00
  1.70000000E+00  1.30000000E+00  1.30000000E+00  1.70000000E+00  1.70000000E+00
  1.70000000E+00  1.30000000E+00  1.70000000E+00  1.70000000E+00  1.70000000E+00
  1.30000000E+00  1.70000000E+00  1.30000000E+00  1.30000000E+00  1.30000000E+00
  1.70000000E+00  1.70000000E+00  1.30000000E+00  1.70000000E+00  1.70000000E+00
  1.30000000E+00  1.70000000E+00  1.30000000E+00  1.30000000E+00  1.30000000E+00
  1.70000000E+00  1.70000000E+00  1.70000000E+00  1.70000000E+00  1.70000000E+00
  1.30000000E+00  1.70000000E+00  1.70000000E+00  1.70000000E+00  1.30000000E+00
  1.70000000E+00  1.70000000E+00  1.30000000E+00  1.30000000E+00  1.70000000E+00
  1.70000000E+00  1.70000000E+00  1.30000000E+00  1.70000000E+00  1.70000000E+00
  1.70000000E+00  1.30000000E+00  1.70000000E+00  1.30000000E+00  1.30000000E+00
  1.30000000E+00  1.70000000E+00  1.70000000E+00  1.30000000E+00  1.70000000E+00
  1.70000000E+00  1.30000000E+00  1.70000000E+00  1.30000000E+00  1.30000000E+00
  1.30000000E+00  1.70000000E+00  1.70000000E+00  1.70000000E+00  1.70000000E+00
  1.70000000E+00  1.30000000E+00  1.70000000E+00  1.70000000E+00  1.70000000E+00
  1.30000000E+00  1.70000000E+00  1.70000000E+00  1.30000000E+00  1.30000000E+00
  1.70000000E+00  1.70000000E+00  1.70000000E+00  1.30000000E+00  1.70000000E+00
  1.70000000E+00  1.70000000E+00  1.30000000E+00  1.70000000E+00  1.30000000E+00
  1.30000000E+00  1.30000000E+00  1.70000000E+00  1.70000000E+00  1.30000000E+00
  1.70000000E+00  1.70000000E+00  1.30000000E+00  1.70000000E+00  1.30000000E+00
  1.30000000E+00  1.30000000E+00  1.70000000E+00  1.70000000E+00  1.70000000E+00
  1.70000000E+00  1.70000000E+00  1.30000000E+00  1.70000000E+00  1.70000000E+00
  1.70000000E+00  1.30000000E+00  1.70000000E+00  1.70000000E+00  1.30000000E+00
  1.30000000E+00  1.70000000E+00  1.70000000E+00  1.70000000E+00  1.30000000E+00
  1.70000000E+00  1.70000000E+00  1.70000000E+00  1.30000000E+00  1.70000000E+00
  1.30000000E+00  1.30000000E+00  1.30000000E+00  1.70000000E+00  1.70000000E+00
  1.30000000E+00  1.70000000E+00  1.70000000E+00  1.30000000E+00  1.70000000E+00
  1.30000000E+00  1.30000000E+00  1.30000000E+00  1.70000000E+00  1.70000000E+00
  1.70000000E+00  1.70000000E+00  1.70000000E+00  1.30000000E+00  1.70000000E+00
  1.70000000E+00  1.70000000E+00  1.30000000E+00  1.70000000E+00  1.70000000E+00
  1.30000000E+00  1.30000000E+00  1.70000000E+00  1.70000000E+00  1.70000000E+00
  1.30000000E+00  1.70000000E+00  1.70000000E+00  1.70000000E+00  1.30000000E+00
  1.70000000E+00  1.30000000E+00  1.30000000E+00  1.30000000E+00  1.70000000E+00
  1.70000000E+00  1.30000000E+00  1.70000000E+00  1.70000000E+00  1.30000000E+00
  1.70000000E+00  1.30000000E+00  1.30000000E+00  1.30000000E+00  1.70000000E+00
  1.70000000E+00  1.70000000E+00  1.70000000E+00  1.70000000E+00  1.30000000E+00
  1.70000000E+00  1.70000000E+00  1.70000000E+00  1.30000000E+00  1.70000000E+00
  1.70000000E+00  1.30000000E+00  1.30000000E+00  1.70000000E+00  1.70000000E+00
  1.70000000E+00  1.30000000E+00  1.70000000E+00  1.70000000E+00  1.70000000E+00
  1.30000000E+00  1.70000000E+00  1.30000000E+00  1.30000000E+00  1.30000000E+00
  1.70000000E+00  1.70000000E+00  1.30000000E+00  1.70000000E+00  1.70000000E+00
  1.30000000E+00  1.70000000E+00  1.30000000E+00  1.30000000E+00  1.30000000E+00
  1.70000000E+00  1.70000000E+00  1.70000000E+00  1.70000000E+00  1.70000000E+00
  1.30000000E+00  1.70000000E+00  1.70000000E+00  1.70000000E+00  1.30000000E+00
  1.70000000E+00  1.70000000E+00  1.30000000E+00  1.30000000E+00  1.70000000E+00
  1.70000000E+00  1.70000000E+00  1.30000000E+00  1.70000000E+00  1.70000000E+00
  1.70000000E+00  1.30000000E+00  1.70000000E+00  1.30000000E+00  1.30000000E+00
  1.30000000E+00  1.70000000E+00  1.70000000E+00  1.30000000E+00  1.70000000E+00
  1.70000000E+00  1.30000000E+00  1.70000000E+00  1.30000000E+00  1.30000000E+00
  1.30000000E+00  1.70000000E+00  1.70000000E+00  1.70000000E+00  1.70000000E+00
  1.70000000E+00  1.30000000E+00  1.70000000E+00  1.70000000E+00  1.70000000E+00
  1.30000000E+00  1.70000000E+00  1.70000000E+00  1.30000000E+00  1.30000000E+00
  1.70000000E+00  1.70000000E+00  1.70000000E+00  1.30000000E+00  1.70000000E+00
  1.70000000E+00  1.70000000E+00  1.30000000E+00  1.70000000E+00  1.30000000E+00
  1.30000000E+00  1.30000000E+00  1.70000000E+00  1.70000000E+00  1.30000000E+00
  1.70000000E+00  1.70000000E+00  1.30000000E+00  1.70000000E+00  1.30000000E+00
  1.30000000E+00  1.30000000E+00  1.70000000E+00  1.70000000E+00  1.70000000E+00
  1.70000000E+00  1.70000000E+00  1.30000000E+00  1.70000000E+00  1.70000000E+00
  1.70000000E+00  1.30000000E+00  1.70000000E+00  1.70000000E+00  1.30000000E+00
  1.30000000E+00  1.70000000E+00  1.70000000E+00  1.70000000E+00  1.30000000E+00
  1.70000000E+00  1.70000000E+00  1.70000000E+00  1.30000000E+00  1.70000000E+00
  1.30000000E+00  1.30000000E+00  1.30000000E+00  1.70000000E+00  1.70000000E+00
  1.30000000E+00  1.70000000E+00  1.70000000E+00  1.30000000E+00  1.70000000E+00
  1.30000000E+00  1.30000000E+00  1.30000000E+00  1.70000000E+00  1.70000000E+00
  1.70000000E+00  1.70000000E+00  1.70000000E+00  1.30000000E+00  1.70000000E+00
  1.70000000E+00  1.70000000E+00  1.30000000E+00  1.70000000E+00  1.70000000E+00
  1.30000000E+00  1.30000000E+00  1.70000000E+00  1.70000000E+00  1.70000000E+00
  1.30000000E+00  1.70000000E+00  1.70000000E+00  1.70000000E+00  1.30000000E+00
  1.70000000E+00  1.30000000E+00  1.30000000E+00  1.30000000E+00  1.70000000E+00
  1.70000000E+00  1.30000000E+00  1.70000000E+00  1.70000000E+00  1.30000000E+00
  1.70000000E+00  1.30000000E+00  1.30000000E+00  1.30000000E+00  1.70000000E+00
  1.70000000E+00  1.70000000E+00  1.70000000E+00  1.70000000E+00  1.30000000E+00
  1.70000000E+00  1.70000000E+00  1.70000000E+00  1.30000000E+00  1.70000000E+00
  1.70000000E+00  1.30000000E+00  1.30000000E+00  1.70000000E+00  1.70000000E+00
  1.70000000E+00  1.30000000E+00  1.70000000E+00  1.70000000E+00  1.70000000E+00
  1.30000000E+00  1.70000000E+00  1.30000000E+00  1.30000000E+00  1.30000000E+00
  1.70000000E+00  1.70000000E+00  1.30000000E+00  1.70000000E+00  1.70000000E+00
  1.30000000E+00  1.70000000E+00  1.30000000E+00  1.30000000E+00  1.30000000E+00
  1.70000000E+00  1.70000000E+00  1.70000000E+00  1.70000000E+00  1.70000000E+00
  1.30000000E+00  1.70000000E+00  1.70000000E+00  1.70000000E+00  1.30000000E+00
  1.70000000E+00  1.70000000E+00  1.30000000E+00  1.30000000E+00  1.70000000E+00
  1.70000000E+00  1.70000000E+00  1.30000000E+00  1.70000000E+00  1.70000000E+00
  1.70000000E+00  1.30000000E+00  1.70000000E+00  1.30000000E+00  1.30000000E+00
  1.30000000E+00  1.70000000E+00  1.70000000E+00  1.30000000E+00  1.70000000E+00
  1.70000000E+00  1.30000000E+00  1.70000000E+00  1.30000000E+00  1.30000000E+00
  1.30000000E+00  1.70000000E+00  1.70000000E+00  1.70000000E+00  1.70000000E+00
  1.70000000E+00  1.30000000E+00  1.70000000E+00  1.70000000E+00  1.70000000E+00
  1.30000000E+00  1.70000000E+00  1.70000000E+00  1.30000000E+00  1.30000000E+00
  1.70000000E+00  1.70000000E+00  1.70000000E+00  1.30000000E+00  1.70000000E+00
  1.70000000E+00  1.70000000E+00  1.30000000E+00  1.70000000E+00  1.30000000E+00
  1.30000000E+00  1.30000000E+00  1.70000000E+00  1.70000000E+00  1.30000000E+00
  1.70000000E+00  1.70000000E+00  1.30000000E+00  1.70000000E+00  1.30000000E+00
  1.30000000E+00  1.30000000E+00  1.70000000E+00  1.70000000E+00  1.70000000E+00
  1.70000000E+00  1.70000000E+00  1.30000000E+00  1.70000000E+00  1.70000000E+00
  1.70000000E+00  1.30000000E+00  1.70000000E+00  1.70000000E+00  1.30000000E+00
  1.30000000E+00  1.70000000E+00  1.70000000E+00  1.70000000E+00  1.30000000E+00
  1.70000000E+00  1.70000000E+00  1.70000000E+00  1.30000000E+00  1.70000000E+00
  1.30000000E+00  1.30000000E+00  1.30000000E+00  1.70000000E+00  1.70000000E+00
  1.30000000E+00  1.70000000E+00  1.70000000E+00  1.30000000E+00  1.70000000E+00
  1.30000000E+00  1.30000000E+00  1.30000000E+00  1.70000000E+00  1.70000000E+00
  1.70000000E+00  1.70000000E+00  1.70000000E+00  1.30000000E+00  1.70000000E+00
  1.70000000E+00  1.70000000E+00  1.30000000E+00  1.70000000E+00  1.70000000E+00
  1.30000000E+00  1.30000000E+00  1.70000000E+00  1.70000000E+00  1.70000000E+00
  1.30000000E+00  1.70000000E+00  1.70000000E+00  1.70000000E+00  1.30000000E+00
  1.70000000E+00  1.30000000E+00  1.30000000E+00  1.30000000E+00  1.70000000E+00
  1.70000000E+00  1.30000000E+00  1.70000000E+00  1.70000000E+00  1.30000000E+00
  1.70000000E+00  1.30000000E+00  1.30000000E+00  1.30000000E+00  1.70000000E+00
  1.70000000E+00  1.70000000E+00  1.70000000E+00  1.70000000E+00  1.30000000E+00
  1.70000000E+00  1.70000000E+00  1.70000000E+00  1.30000000E+00  1.70000000E+00
  1.70000000E+00  1.30000000E+00  1.30000000E+00  1.70000000E+00  1.70000000E+00
  1.70000000E+00  1.30000000E+00  1.70000000E+00  1.70000000E+00  1.70000000E+00
  1.30000000E+00  1.70000000E+00  1.30000000E+00  1.30000000E+00  1.30000000E+00
  1.70000000E+00  1.70000000E+00  1.30000000E+00  1.70000000E+00  1.70000000E+00
  1.30000000E+00  1.70000000E+00  1.30000000E+00  1.30000000E+00  1.30000000E+00
%FLAG SCREEN                                                                    
%FORMAT(5E16.8)                                                                 
  7.20000000E-01  7.20000000E-01  7.20000000E-01  7.20000000E-01  7.20000000E-01
  8.50000000E-01  7.20000000E-01  7.20000000E-01  7.20000000E-01  8.50000000E-01
  7.20000000E-01  7.20000000E-01  8.50000000E-01  8.50000000E-01  7.20000000E-01
  7.20000000E-01  7.20000000E-01  8.50000000E-01  7.20000000E-01  7.20000000E-01
  7.20000000E-01  8.50000000E-01  7.20000000E-01  8.50000000E-01  8.50000000E-01
  8.50000000E-01  7.20000000E-01  7.20000000E-01  8.50000000E-01  7.20000000E-01
  7.20000000E-01  8.50000000E-01  7.20000000E-01  8.50000000E-01  8.50000000E-01
  8.50000000E-01  7.20000000E-01  7.20000000E-01  7.20000000E-01  7.20000000E-01
  7.20000000E-01  8.50000000E-01  7.20000000E-01  7.20000000E-01  7.20000000E-01
  8.50000000E-01  7.20000000E-01  7.20000000E-01  8.50000000E-01  8.50000000E-01
  7.20000000E-01  7.20000000E-01  7.20000000E-01  8.50000000E-01  7.20000000E-01
  7.20000000E-01  7.20000000E-01  8.50000000E-01  7.20000000E-01  8.50000000E-01
  8.50000000E-01  8.50000000E-01  7.20000000E-01  7.20000000E-01  8.50000000E-01
  7.20000000E-01  7.20000000E-01  8.50000000E-01  7.20000000E-01  8.50000000E-01
  8.50000000E-01  8.50000000E-01  7.20000000E-01  7.20000000E-01  7.20000000E-01
  7.20000000E-01  7.20000000E-01  8.50000000E-01  7.20000000E-01  7.20000000E-01
  7.20000000E-01  8.50000000E-01  7.20000000E-01  7.20000000E-01  8.50000000E-01
  8.50000000E-01  7.20000000E-01  7.20000000E-01  7.20000000E-01  8.50000000E-01
  7.20000000E-01  7.20000000E-01  7.20000000E-01  8.50000000E-01  7.20000000E-01
  8.50000000E-01  8.50000000E-01  8.50000000E-01  7.20000000E-01  7.20000000E-01
  8.50000000E-01  7.20000000E-01  7.20000000E-01  8.50000000E-01  7.20000000E-01
  8.50000000E-01  8.50000000E-01  8.50000000E-01  7.20000000E-01  7.20000000E-01
  7.20000000E-01  7.20000000E-01  7.20000000E-01  8.50000000E-01  7.20000000E-01
  7.20000000E-01  7.20000000E-01  8.50000000E-01  7.20000000E-01  7.20000000E-01
  8.50000000E-01  8.50000000E-01  7.20000000E-01  7.20000000E-01  7.20000000E-01
  8.50000000E-01  7.20000000E-01  7.20000000E-01  7.20000000E-01  8.50000000E-01
  7.20000000E-01  8.50000000E-01  8.50000000E-01  8.50000000E-01  7.20000000E-01
  7.20000000E-01  8.50000000E-01  7.20000000E-01  7.20000000E-01  8.50000000E-01
  7.20000000E-01  8.50000000E-01  8.50000000E-01  8.50000000E-01  7.20000000E-01
  7.20000000E-01  7.20000000E-01  7.20000000E-01  7.20000000E-01  8.50000000E-01
  7.20000000E-01  7.20000000E-01  7.20000000E-01  8.50000000E-01  7.20000000E-01
  7.20000000E-01  8.50000000E-01  8.50000000E-01  7.20000000E-01  7.20000000E-01
  7.20000000E-01  8.50000000E-01  7.20000000E-01  7.20000000E-01  7.20000000E-01
  8.50000000E-01  7.20000000E-01  8.50000000E-01  8.50000000E-01  8.50000000E-01
  7.20000000E-01  7.20000000E-01  8.50000000E-01  7.20000000E-01  7.20000000E-01
  8.50000000E-01  7.20000000E-01  8.50000000E-01  8.50000000E-01  8.50000000E-01
  7.20000000E-01  7.20000000E-01  7.20000000E-01  7.20000000E-01  7.20000000E-01
  8.50000000E-01  7.20000000E-01  7.20000000E-01  7.20000000E-01  8.50000000E-01
  7.20000000E-01  7.20000000E-01  8.50000000E-01  8.50000000E-01  7.20000000E-01
  7.20000000E-01  7.20000000E-01  8.50000000E-01  7.20000000E-01  7.20000000E-01
  7.20000000E-01  8.50000000E-01  7.20000000E-01  8.50000000E-01  8.50000000E-01
  8.50000000E-01  7.20000000E-01  7.20000000E-01  8.50000000E-01  7.20000000E-01
  7.20000000E-01  8.50000000E-01  7.20000000E-01  8.50000000E-01  8.50000000E-01
  8.50000000E-01  7.20000000E-01  7.20000000E-01  7.20000000E-01  7.20000000E-01
  7.20000000E-01  8.50000000E-01  7.20000000E-01  7.20000000E-01  7.20000000E-01
  8.50000000E-01  7.20000000E-01  7.20000000E-01  8.50000000E-01  8.50000000E-01
  7.20000000E-01  7.20000000E-01  7.20000000E-01  8.50000000E-01  7.20000000E-01
  7.20000000E-01  7.20000000E-01  8.50000000E-01  7.20000000E-01  8.50000000E-01
  8.50000000E-01  8.50000000E-01  7.20000000E-01  7.20000000E-01  8.50000000E-01
  7.20000000E-01  7.20000000E-01  8.50000000E-01  7.20000000E-01  8.50000000E-01
  8.50000000E-01  8.50000000E-01  7.20000000E-01  7.20000000E-01  7.20000000E-01
  7.20000000E-01  7.20000000E-01  8.50000000E-01  7.20000000E-01  7.20000000E-01
  7.20000000E-01  8.50000000E-01  7.20000000E-01  7.20000000E-01  8.50000000E-01
  8.50000000E-01  7.20000000E-01  7.20000000E-01  7.20000000E-01  8.50000000E-01
  7.20000000E-01  7.20000000E-01  7.20000000E-01  8.50000000E-01  7.20000000E-01
  8.50000000E-01  8.50000000E-01  8.50000000E-01  7.20000000E-01  7.20000000E-01
  8.50000000E-01  7.20000000E-01  7.20000000E-01  8.50000000E-01  7.20000000E-01
  8.50000000E-01  8.50000000E-01  8.50000000E-01  7.20000000E-01  7.20000000E-01
  7.20000000E-01  7.20000000E-01  7.20000000E-01  8.50000000E-01  7.20000000E-01
  7.20000000E-01  7.20000000E-01  8.50000000E-01  7.20000000E-01  7.20000000E-01
  8.50000000E-01  8.50000000E-01  7.20000000E-01  7.20000000E-01  7.20000000E-01
  8.50000000E-01  7.20000000E-01  7.20000000E-01  7.20000000E-01  8.50000000E-01
  7.20000000E-01  8.50000000E-01  8.50000000E-01  8.50000000E-01  7.20000000E-01
  7.20000000E-01  8.50000000E-01  7.20000000E-01  7.20000000E-01  8.50000000E-01
  7.20000000E-01  8.50000000E-01  8.50000000E-01  8.50000000E-01  7.20000000E-01
  7.20000000E-01  7.20000000E-01  7.20000000E-01  7.20000000E-01  8.50000000E-01
  7.20000000E-01  7.20000000E-01  7.20000000E-01  8.50000000E-01  7.20000000E-01
  7.20000000E-01  8.50000000E-01  8.50000000E-01  7.20000000E-01  7.20000000E-01
  7.20000000E-01  8.50000000E-01  7.20000000E-01  7.20000000E-01  7.20000000E-01
  8.50000000E-01  7.20000000E-01  8.50000000E-01  8.50000000E-01  8.50000000E-01
  7.20000000E-01  7.20000000E-01  8.50000000E-01  7.20000000E-01  7.20000000E-01
  8.50000000E-01  7.20000000E-01  8.50000000E-01  8.50000000E-01  8.50000000E-01
  7.20000000E-01  7.20000000E-01  7.20000000E-01  7.20000000E-01  7.20000000E-01
  8.50000000E-01  7.20000000E-01  7.20000000E-01  7.20000000E-01  8.50000000E-01
  7.20000000E-01  7.20000000E-01  8.50000000E-01  8.50000000E-01  7.20000000E-01
  7.20000000E-01  7.20000000E-01  8.50000000E-01  7.20000000E-01  7.20000000E-01
  7.20000000E-01  8.50000000E-01  7.20000000E-01  8.50000000E-01  8.50000000E-01
  8.50000000E-01  7.20000000E-01  7.20000000E-01  8.50000000E-01  7.20000000E-01
  7.20000000E-01  8.50000000E-01  7.20000000E-01  8.50000000E-01  8.50000000E-01
  8.50000000E-01  7.20000000E-01  7.20000000E-01  7.20000000E-01  7.20000000E-01
  7.20000000E-01  8.50000000E-01  7.20000000E-01  7.20000000E-01  7.20000000E-01
  8.50000000E-01  7.20000000E-01  7.20000000E-01  8.50000000E-01  8.50000000E-01
  7.20000000E-01  7.20000000E-01  7.20000000E-01  8.50000000E-01  7.20000000E-01
  7.20000000E-01  7.20000000E-01  8.50000000E-01  7.20000000E-01  8.50000000E-01
  8.50000000E-01  8.50000000E-01  7.20000000E-01  7.20000000E-01  8.50000000E-01
  7.20000000E-01  7.20000000E-01  8.50000000E-01  7.20000000E-01  8.50000000E-01
  8.50000000E-01  8.50000000E-01  7.20000000E-01  7.20000000E-01  7.20000000E-01
  7.20000000E-01  7.20000000E-01  8.50000000E-01  7.20000000E-01  7.20000000E-01
  7.20000000E-01  8.50000000E-01  7.20000000E-01  7.20000000E-01  8.50000000E-01
  8.50000000E-01  7.20000000E-01  7.20000000E-01  7.20000000E-01  8.50000000E-01
  7.20000000E-01  7.20000000E-01  7.20000000E-01  8.50000000E-01  7.20000000E-01
  8.50000000E-01  8.50000000E-01  8.50000000E-01  7.20000000E-01  7.20000000E-01
  8.50000000E-01  7.20000000E-01  7.20000000E-01  8.50000000E-01  7.20000000E-01
  8.50000000E-01  8.50000000E-01  8.50000000E-01  7.20000000E-01  7.20000000E-01
  7.20000000E-01  7.20000000E-01  7.20000000E-01  8.50000000E-01  7.20000000E-01
  7.20000000E-01  7.20000000E-01  8.50000000E-01  7.20000000E-01  7.20000000E-01
  8.50000000E-01  8.50000000E-01  7.20000000E-01  7.20000000E-01  7.20000000E-01
  8.50000000E-01  7.20000000E-01  7.20000000E-01  7.20000000E-01  8.50000000E-01
  7.20000000E-01  8.50000000E-01  8.50000000E-01  8.50000000E-01  7.20000000E-01
  7.20000000E-01  8.50000000E-01  7.20000000E-01  7.20000000E-01  8.50000000E-01
  7.20000000E-01  8.50000000E-01  8.50000000E-01  8.50000000E-01  7.20000000E-01
  7.20000000E-01  7.20000000E-01  7.20000000E-01  7.20000000E-01  8.50000000E-01
  7.20000000E-01  7.20000000E-01  7.20000000E-01  8.50000000E-01  7.20000000E-01
  7.20000000E-01  8.50000000E-01  8.50000000E-01  7.20000000E-01  7.20000000E-01
  7.20000000E-01  8.50000000E-01  7.20000000E-01  7.20000000E-01  7.20000000E-01
  8.50000000E-01  7.20000000E-01  8.50000000E-01  8.50000000E-01  8.50000000E-01
  7.20000000E-01  7.20000000E-01  8.50000000E-01  7.20000000E-01  7.20000000E-01
  8.50000000E-01  7.20000000E-01  8.50000000E-01  8.50000000E-01  8.50000000E-01
  7.20000000E-01  7.20000000E-01  7.20000000E-01  7.20000000E-01  7.20000000E-01
  8.50000000E-01  7.20000000E-01  7.20000000E-01  7.20000000E-01  8.50000000E-01
  7.20000000E-01  7.20000000E-01  8.50000000E-01  8.50000000E-01  7.20000000E-01
  7.20000000E-01  7.20000000E-01  8.50000000E-01  7.20000000E-01  7.20000000E-01
  7.20000000E-01  8.50000000E-01  7.20000000E-01  8.50000000E-01  8.50000000E-01
  8.50000000E-01  7.20000000E-01  7.20000000E-01  8.50000000E-01  7.20000000E-01
  7.20000000E-01  8.50000000E-01  7.20000000E-01  8.50000000E-01  8.50000000E-01
  8.50000000E-01  7.20000000E-01  7.20000000E-01  7.20000000E-01  7.20000000E-01
  7.20000000E-01  8.50000000E-01  7.20000000E-01  7.20000000E-01  7.20000000E-01
  8.50000000E-01  7.20000000E-01  7.20000000E-01  8.50000000E-01  8.50000000E-01
  7.20000000E-01  7.20000000E-01  7.20000000E-01  8.50000000E-01  7.20000000E-01
  7.20000000E-01  7.20000000E-01  8.50000000E-01  7.20000000E-01  8.50000000E-01
  8.50000000E-01  8.50000000E-01  7.20000000E-01  7.20000000E-01  8.50000000E-01
  7.20000000E-01  7.20000000E-01  8.50000000E-01  7.20000000E-01  8.50000000E-01
  8.50000000E-01  8.50000000E-01  7.20000000E-01  7.20000000E-01  7.20000000E-01
  7.20000000E-01  7.20000000E-01  8.50000000E-01  7.20000000E-01  7.20000000E-01
  7.20000000E-01  8.50000000E-01  7.20000000E-01  7.20000000E-01  8.50000000E-01
  8.50000000E-01  7.20000000E-01  7.20000000E-01  7.20000000E-01  8.50000000E-01
  7.20000000E-01  7.20000000E-01  7.20000000E-01  8.50000000E-01  7.20000000E-01
  8.50000000E-01  8.50000000E-01  8.50000000E-01  7.20000000E-01  7.20000000E-01
  8.50000000E-01  7.20000000E-01  7.20000000E-01  8.50000000E-01  7.20000000E-01
  8.50000000E-01  8.50000000E-01  8.50000000E-01  7.20000000E-01  7.20000000E-01
  7.20000000E-01  7.20000000E-01  7.20000000E-01  8.50000000E-01  7.20000000E-01
  7.20000000E-01  7.20000000E-01  8.50000000E-01  7.20000000E-01  7.20000000E-01
  8.50000000E-01  8.50000000E-01  7.20000000E-01  7.20000000E-01  7.20000000E-01
  8.50000000E-01  7.20000000E-01  7.20000000E-01  7.20000000E-01  8.50000000E-01
  7.20000000E-01  8.50000000E-01  8.50000000E-01  8.50000000E-01  7.20000000E-01
  7.20000000E-01  8.50000000E-01  7.20000000E-01  7.20000000E-01  8.50000000E-01
  7.20000000E-01  8.50000000E-01  8.50000000E-01  8.50000000E-01  7.20000000E-01
  7.20000000E-01  7.20000000E-01  7.20000000E-01  7.20000000E-01  8.50000000E-01
  7.20000000E-01  7.20000000E-01  7.20000000E-01  8.50000000E-01  7.20000000E-01
  7.20000000E-01  8.50000000E-01  8.50000000E-01  7.20000000E-01  7.20000000E-01
  7.20000000E-01  8.50000000E-01  7.20000000E-01  7.20000000E-01  7.20000000E-01
  8.50000000E-01  7.20000000E-01  8.50000000E-01  8.50000000E-01  8.50000000E-01
  7.20000000E-01  7.20000000E-01  8.50000000E-01  7.20000000E-01  7.20000000E-01
  8.50000000E-01  7.20000000E-01  8.50000000E-01  8.50000000E-01  8.50000000E-01
  7.20000000E-01  7.20000000E-01  7.20000000E-01  7.20000000E-01  7.20000000E-01
  8.50000000E-01  7.20000000E-01  7.20000000E-01  7.20000000E-01  8.50000000E-01
  7.20000000E-01  7.20000000E-01  8.50000000E-01  8.50000000E-01  7.20000000E-01
  7.20000000E-01  7.20000000E-01  8.50000000E-01  7.20000000E-01  7.20000000E-01
  7.20000000E-01  8.50000000E-01  7.20000000E-01  8.50000000E-01  8.50000000E-01
  8.50000000E-01  7.20000000E-01  7.20000000E-01  8.50000000E-01  7.20000000E-01
  7.20000000E-01  8.50000000E-01  7.20000000E-01  8.50000000E-01  8.50000000E-01
  8.50000000E-01  7.20000000E-01  7.20000000E-01  7.20000000E-01  7.20000000E-01
  7.20000000E-01  8.50000000E-01  7.20000000E-01  7.20000000E-01  7.20000000E-01
  8.50000000E-01  7.20000000E-01  7.20000000E-01  8.50000000E-01  8.50000000E-01
  7.20000000E-01  7.20000000E-01  7.20000000E-01  8.50000000E-01  7.20000000E-01
  7.20000000E-01  7.20000000E-01  8.50000000E-01  7.20000000E-01  8.50000000E-01
  8.50000000E-01  8.50000000E-01  7.20000000E-01  7.20000000E-01  8.50000000E-01
  7.20000000E-01  7.20000000E-01  8.50000000E-01  7.20000000E-01  8.50000000E-01
  8.50000000E-01  8.50000000E-01  7.20000000E-01  7.20000000E-01  7.20000000E-01
  7.20000000E-01  7.20000000E-01  8.50000000E-01  7.20000000E-01  7.20000000E-01
  7.20000000E-01  8.50000000E-01  7.20000000E-01  7.20000000E-01  8.50000000E-01
  8.50000000E-01  7.20000000E-01  7.20000000E-01  7.20000000E-01  8.50000000E-01
  7.20000000E-01  7.20000000E-01  7.20000000E-01  8.50000000E-01  7.20000000E-01
  8.50000000E-01  8.50000000E-01  8.50000000E-01  7.20000000E-01  7.20000000E-01
  8.50000000E-01  7.20000000E-01  7.20000000E-01  8.50000000E-01  7.20000000E-01
  8.50000000E-01  8.50000000E-01  8.50000000E-01  7.20000000E-01  7.20000000E-01
  7.20000000E-01  7.20000000E-01  7.20000000E-01  8.50000000E-01  7.20000000E-01
  7.20000000E-01  7.20000000E-01  8.50000000E-01  7.20000000E-01  7.20000000E-01
  8.50000000E-01  8.50000000E-01  7.20000000E-01  7.20000000E-01  7.20000000E-01
  8.50000000E-01  7.20000000E-01  7.20000000E-01  7.20000000E-01  8.50000000E-01
  7.20000000E-01  8.50000000E-01  8.50000000E-01  8.50000000E-01  7.20000000E-01
  7.20000000E-01  8.50000000E-01  7.20000000E-01  7.20000000E-01  8.50000000E-01
  7.20000000E-01  8.50000000E-01  8.50000000E-01  8.50000000E-01  7.20000000E-01
  7.20000000E-01  7.20000000E-01  7.20000000E-01  7.20000000E-01  8.50000000E-01
  7.20000000E-01  7.20000000E-01  7.20000000E-01  8.50000000E-01  7.20000000E-01
  7.20000000E-01  8.50000000E-01  8.50000000E-01  7.20000000E-01  7.20000000E-01
  7.20000000E-01  8.50000000E-01  7.20000000E-01  7.20000000E-01  7.20000000E-01
  8.50000000E-01  7.20000000E-01  8.50000000E-01  8.50000000E-01  8.50000000E-01
  7.20000000E-01  7.20000000E-01  8.50000000E-01  7.20000000E-01  7.20000000E-01
  8.50000000E-01  7.20000000E-01  8.50000000E-01  8.50000000E-01  8.50000000E-01
  7.20000000E-01  7.20000000E-01  7.20000000E-01  7.20000000E-01  7.20000000E-01
  8.50000000E-01  7.20000000E-01  7.20000000E-01  7.20000000E-01  8.50000000E-01
  7.20000000E-01  7.20000000E-01  8.50000000E-01  8.50000000E-01  7.20000000E-01
  7.20000000E-01  7.20000000E-01  8.50000000E-01  7.20000000E-01  7.20000000E-01
  7.20000000E-01  8.50000000E-01  7.20000000E-01  8.50000000E-01  8.50000000E-01
  8.50000000E-01  7.20000000E-01  7.20000000E-01  8.50000000E-01  7.20000000E-01
  7.20000000E-01  8.50000000E-01  7.20000000E-01  8.50000000E-01  8.50000000E-01
  8.50000000E-01  7.20000000E-01  7.20000000E-01  7.20000000E-01  7.20000000E-01
  7.20000000E-01  8.50000000E-01  7.20000000E-01  7.20000000E-01  7.20000000E-01
  8.50000000E-01  7.20000000E-01  7.20000000E-01  8.50000000E-01  8.50000000E-01
  7.20000000E-01  7.20000000E-01  7.20000000E-01  8.50000000E-01  7.20000000E-01
  7.20000000E-01  7.20000000E-01  8.50000000E-01  7.20000000E-01  8.50000000E-01
  8.50000000E-01  8.50000000E-01  7.20000000E-01  7.20000000E-01  8.50000000E-01
  7.20000000E-01  7.20000000E-01  8.50000000E-01  7.20000000E-01  8.50000000E-01
  8.50000000E-01  8.50000000E-01  7.20000000E-01  7.20000000E-01  7.20000000E-01
  7.20000000E-01  7.20000000E-01  8.50000000E-01  7.20000000E-01  7.20000000E-01
  7.20000000E-01  8.50000000E-01  7.20000000E-01  7.20000000E-01  8.50000000E-01
  8.50000000E-01  7.20000000E-01  7.20000000E-01  7.20000000E-01  8.50000000E-01
  7.20000000E-01  7.20000000E-01  7.20000000E-01  8.50000000E-01  7.20000000E-01
  8.50000000E-01  8.50000000E-01  8.50000000E-01  7.20000000E-01  7.20000000E-01
  8.50000000E-01  7.20000000E-01  7.20000000E-01  8.50000000E-01  7.20000000E-01
  8.50000000E-01  8.50000000E-01  8.50000000E-01  7.20000000E-01  7.20000000E-01
  7.20000000E-01  7.20000000E-01  7.20000000E-01  8.50000000E-01  7.20000000E-01
  7.20000000E-01  7.20000000E-01  8.50000000E-01  7.20000000E-01  7.20000000E-01
  8.50000000E-01  8.50000000E-01  7.20000000E-01  7.20000000E-01  7.20000000E-01
  8.50000000E-01  7.20000000E-01  7.20000000E-01  7.20000000E-01  8.50000000E-01
  7.20000000E-01  8.50000000E-01  8.50000000E-01  8.50000000E-01  7.20000000E-01
  7.20000000E-01  8.50000000E-01  7.20000000E-01  7.20000000E-01  8.50000000E-01
  7.20000000E-01  8.50000000E-01  8.50000000E-01  8.50000000E-01  7.20000000E-01
  7.20000000E-01  7.20000000E-01  7.20000000E-01  7.20000000E-01  8.50000000E-01
  7.20000000E-01  7.20000000E-01  7.20000000E-01  8.50000000E-01  7.20000000E-01
  7.20000000E-01  8.50000000E-01  8.50000000E-01  7.20000000E-01  7.20000000E-01
  7.20000000E-01  8.50000000E-01  7.20000000E-01  7.20000000E-01  7.20000000E-01
  8.50000000E-01  7.20000000E-01  8.50000000E-01  8.50000000E-01  8.50000000E-01
  7.20000000E-01  7.20000000E-01  8.50000000E-01  7.20000000E-01  7.20000000E-01
  8.50000000E-01  7.20000000E-01  8.50000000E-01  8.50000000E-01  8.50000000E-01
  7.20000000E-01  7.20000000E-01  7.20000000E-01  7.20000000E-01  7.20000000E-01
  8.50000000E-01  7.20000000E-01  7.20000000E-01  7.20000000E-01  8.50000000E-01
  7.20000000E-01  7.20000000E-01  8.50000000E-01  8.50000000E-01  7.20000000E-01
  7.20000000E-01  7.20000000E-01  8.50000000E-01  7.20000000E-01  7.20000000E-01
  7.20000000E-01  8.50000000E-01  7.20000000E-01  8.50000000E-01  8.50000000E-01
  8.50000000E-01  7.20000000E-01  7.20000000E-01  8.50000000E-01  7.20000000E-01
  7.20000000E-01  8.50000000E-01  7.20000000E-01  8.50000000E-01  8.50000000E-01
  8.50000000E-01  7.20000000E-01  7.20000000E-01  7.20000000E-01  7.20000000E-01
  7.20000000E-01  8.50000000E-01  7.20000000E-01  7.20000000E-01  7.20000000E-01
  8.50000000E-01  7.20000000E-01  7.20000000E-01  8.50000000E-01  8.50000000E-01
  7.20000000E-01  7.20000000E-01  7.20000000E-01  8.50000000E-01  7.20000000E-01
  7.20000000E-01  7.20000000E-01  8.50000000E-01  7.20000000E-01  8.50000000E-01
  8.50000000E-01  8.50000000E-01  7.20000000E-01  7.20000000E-01  8.50000000E-01
  7.20000000E-01  7.20000000E-01  8.50000000E-01  7.20000000E-01  8.50000000E-01
  8.50000000E-01  8.50000000E-01  7.20000000E-01  7.20000000E-01  7.20000000E-01
  7.20000000E-01  7.20000000E-01  8.50000000E-01  7.20000000E-01  7.20000000E-01
  7.20000000E-01  8.50000000E-01  7.20000000E-01  7.20000000E-01  8.50000000E-01
  8.50000000E-01  7.20000000E-01  7.20000000E-01  7.20000000E-01  8.50000000E-01
  7.20000000E-01  7.20000000E-01  7.20000000E-01  8.50000000E-01  7.20000000E-01
  8.50000000E-01  8.50000000E-01  8.50000000E-01  7.20000000E-01  7.20000000E-01
  8.50000000E-01  7.20000000E-01  7.20000000E-01  8.50000000E-01  7.20000000E-01
  8.50000000E-01  8.50000000E-01  8.50000000E-01  7.20000000E-01  7.20000000E-01
  7.20000000E-01  7.20000000E-01  7.20000000E-01  8.50000000E-01  7.20000000E-01
  7.20000000E-01  7.20000000E-01  8.50000000E-01  7.20000000E-01  7.20000000E-01
  8.50000000E-01  8.50000000E-01  7.20000000E-01  7.20000000E-01  7.20000000E-01
  8.50000000E-01  7.20000000E-01  7.20000000E-01  7.20000000E-01  8.50000000E-01
  7.20000000E-01  8.50000000E-01  8.50000000E-01  8.50000000E-01  7.20000000E-01
  7.20000000E-01  8.50000000E-01  7.20000000E-01  7.20000000E-01  8.50000000E-01
  7.20000000E-01  8.50000000E-01  8.50000000E-01  8.50000000E-01  7.20000000E-01
  7.20000000E-01  7.20000000E-01  7.20000000E-01  7.20000000E-01  8.50000000E-01
  7.20000000E-01  7.20000000E-01  7.20000000E-01  8.50000000E-01  7.20000000E-01
  7.20000000E-01  8.50000000E-01  8.50000000E-01  7.20000000E-01  7.20000000E-01
  7.20000000E-01  8.50000000E-01  7.20000000E-01  7.20000000E-01  7.20000000E-01
  8.50000000E-01  7.20000000E-01  8.50000000E-01  8.50000000E-01  8.50000000E-01
  7.20000000E-01  7.20000000E-01  8.50000000E-01  7.20000000E-01  7.20000000E-01
  8.50000000E-01  7.20000000E-01  8.50000000E-01  8.50000000E-01  8.50000000E-01
  7.20000000E-01  7.20000000E-01  7.20000000E-01  7.20000000E-01  7.20000000E-01
  8.50000000E-01  7.20000000E-01  7.20000000E-01  7.20000000E-01  8.50000000E-01
  7.20000000E-01  7.20000000E-01  8.50000000E-01  8.50000000E-01  7.20000000E-01
  7.20000000E-01  7.20000000E-01  8.50000000E-01  7.20000000E-01  7.20000000E-01
  7.20000000E-01  8.50000000E-01  7.20000000E-01  8.50000000E-01  8.50000000E-01
  8.50000000E-01  7.20000000E-01  7.20000000E-01  8.50000000E-01  7.20000000E-01
  7.20000000E-01  8.50000000E-01  7.20000000E-01  8.50000000E-01  8.50000000E-01
  8.50000000E-01  7.20000000E-01  7.20000000E-01  7.20000000E-01  7.20000000E-01
  7.20000000E-01  8.50000000E-01  7.20000000E-01  7.20000000E-01  7.20000000E-01
  8.50000000E-01  7.20000000E-01  7.20000000E-01  8.50000000E-01  8.50000000E-01
  7.20000000E-01  7.20000000E-01  7.20000000E-01  8.50000000E-01  7.20000000E-01
  7.20000000E-01  7.20000000E-01  8.50000000E-01  7.20000000E-01  8.50000000E-01
  8.50000000E-01  8.50000000E-01  7.20000000E-01  7.20000000E-01  8.50000000E-01
  7.20000000E-01  7.20000000E-01  8.50000000E-01  7.20000000E-01  8.50000000E-01
  8.50000000E-01  8.50000000E-01  7.20000000E-01  7.20000000E-01  7.20000000E-01
  7.20000000E-01  7.20000000E-01  8.50000000E-01  7.20000000E-01  7.20000000E-01
  7.20000000E-01  8.50000000E-01  7.20000000E-01  7.20000000E-01  8.50000000E-01
  8.50000000E-01  7.20000000E-01  7.20000000E-01  7.20000000E-01  8.50000000E-01
  7.20000000E-01  7.20000000E-01  7.20000000E-01  8.50000000E-01  7.20000000E-01
  8.50000000E-01  8.50000000E-01  8.50000000E-01  7.20000000E-01  7.20000000E-01
  8.50000000E-01  7.20000000E-01  7.20000000E-01  8.50000000E-01  7.20000000E-01
  8.50000000E-01  8.50000000E-01  8.50000000E-01  7.20000000E-01  7.20000000E-01
  7.20000000E-01  7.20000000E-01  7.20000000E-01  8.50000000E-01  7.20000000E-01
  7.20000000E-01  7.20000000E-01  8.50000000E-01  7.20000000E-01  7.20000000E-01
  8.50000000E-01  8.50000000E-01  7.20000000E-01  7.20000000E-01  7.20000000E-01
  8.50000000E-01  7.20000000E-01  7.20000000E-01  7.20000000E-01  8.50000000E-01
  7.20000000E-01  8.50000000E-01  8.50000000E-01  8.50000000E-01  7.20000000E-01
  7.20000000E-01  8.50000000E-01  7.20000000E-01  7.20000000E-01  8.50000000E-01
  7.20000000E-01  8.50000000E-01  8.50000000E-01  8.50000000E-01  7.20000000E-01
  7.20000000E-01  7.20000000E-01  7.20000000E-01  7.20000000E-01  8.50000000E-01
  7.20000000E-01  7.20000000E-01  7.20000000E-01  8.50000000E-01  7.20000000E-01
  7.20000000E-01  8.50000000E-01  8.50000000E-01  7.20000000E-01  7.20000000E-01
  7.20000000E-01  8.50000000E-01  7.20000000E-01  7.20000000E-01  7.20000000E-01
  8.50000000E-01  7.20000000E-01  8.50000000E-01  8.50000000E-01  8.50000000E-01
  7.20000000E-01  7.20000000E-01  8.50000000E-01  7.20000000E-01  7.20000000E-01
  8.50000000E-01  7.20000000E-01  8.50000000E-01  8.50000000E-01  8.50000000E-01
  7.20000000E-01  7.20000000E-01  7.20000000E-01  7.20000000E-01  7.20000000E-01
  8.50000000E-01  7.20000000E-01  7.20000000E-01  7.20000000E-01  8.50000000E-01
  7.20000000E-01  7.20000000E-01  8.50000000E-01  8.50000000E-01  7.20000000E-01
  7.20000000E-01  7.20000000E-01  8.50000000E-01  7.20000000E-01  7.20000000E-01
  7.20000000E-01  8.50000000E-01  7.20000000E-01  8.50000000E-01  8.50000000E-01
  8.50000000E-01  7.20000000E-01  7.20000000E-01  8.50000000E-01  7.20000000E-01
  7.20000000E-01  8.50000000E-01  7.20000000E-01  8.50000000E-01  8.50000000E-01
  8.50000000E-01  7.20000000E-01  7.20000000E-01  7.20000000E-01  7.20000000E-01
  7.20000000E-01  8.50000000E-01  7.20000000E-01  7.20000000E-01  7.20000000E-01
  8.50000000E-01  7.20000000E-01  7.20000000E-01  8.50000000E-01  8.50000000E-01
  7.20000000E-01  7.20000000E-01  7.20000000E-01  8.50000000E-01  7.20000000E-01
  7.20000000E-01  7.20000000E-01  8.50000000E-01  7.20000000E-01  8.50000000E-01
  8.50000000E-01  8.50000000E-01  7.20000000E-01  7.20000000E-01  8.50000000E-01
  7.20000000E-01  7.20000000E-01  8.50000000E-01  7.20000000E-01  8.50000000E-01
  8.50000000E-01  8.50000000E-01  7.20000000E-01  7.20000000E-01  7.20000000E-01
  7.20000000E-01  7.20000000E-01  8.50000000E-01  7.20000000E-01  7.20000000E-01
  7.20000000E-01  8.50000000E-01  7.20000000E-01  7.20000000E-01  8.50000000E-01
  8.50000000E-01  7.20000000E-01  7.20000000E-01  7.20000000E-01  8.50000000E-01
  7.20000000E-01  7.20000000E-01  7.20000000E-01  8.50000000E-01  7.20000000E-01
  8.50000000E-01  8.50000000E-01  8.50000000E-01  7.20000000E-01  7.20000000E-01
  8.50000000E-01  7.20000000E-01  7.20000000E-01  8.50000000E-01  7.20000000E-01
  8.50000000E-01  8.50000000E-01  8.50000000E-01  7.20000000E-01  7.20000000E-01
  7.20000000E-01  7.20000000E-01  7.20000000E-01  8.50000000E-01  7.20000000E-01
  7.20000000E-01  7.20000000E-01  8.50000000E-01  7.20000000E-01  7.20000000E-01
  8.50000000E-01  8.50000000E-01  7.20000000E-01  7.20000000E-01  7.20000000E-01
  8.50000000E-01  7.20000000E-01  7.20000000E-01  7.20000000E-01  8.50000000E-01
  7.20000000E-01  8.50000000E-01  8.50000000E-01  8.50000000E-01  7.20000000E-01
  7.20000000E-01  8.50000000E-01  7.20000000E-01  7.20000000E-01  8.50000000E-01
  7.20000000E-01  8.50000000E-01  8.50000000E-01  8.50000000E-01  7.20000000E-01
  7.20000000E-01  7.20000000E-01  7.20000000E-01  7.20000000E-01  8.50000000E-01
  7.20000000E-01  7.20000000E-01  7.20000000E-01  8.50000000E-01  7.20000000E-01
  7.20000000E-01  8.50000000E-01  8.50000000E-01  7.20000000E-01  7.20000000E-01
  7.20000000E-01  8.50000000E-01  7.20000000E-01  7.20000000E-01  7.20000000E-01
  8.50000000E-01  7.20000000E-01  8.50000000E-01  8.50000000E-01  8.50000000E-01
  7.20000000E-01  7.20000000E-01  8.50000000E-01  7.20000000E-01  7.20000000E-01
  8.50000000E-01  7.20000000E-01  8.50000000E-01  8.50000000E-01  8.50000000E-01
  7.20000000E-01  7.20000000E-01  7.20000000E-01  7.20000000E-01  7.20000000E-01
  8.50000000E-01  7.20000000E-01  7.20000000E-01  7.20000000E-01  8.50000000E-01
  7.20000000E-01  7.20000000E-01  8.50000000E-01  8.50000000E-01  7.20000000E-01
  7.20000000E-01  7.20000000E-01  8.50000000E-01  7.20000000E-01  7.20000000E-01
  7.20000000E-01  8.50000000E-01  7.20000000E-01  8.50000000E-01  8.50000000E-01
  8.50000000E-01  7.20000000E-01  7.20000000E-01  8.50000000E-01  7.20000000E-01
  7.20000000E-01  8.50000000E-01  7.20000000E-01  8.50000000E-01  8.50000000E-01
  8.50000000E-01  7.20000000E-01  7.20000000E-01  7.20000000E-01  7.20000000E-01
  7.20000000E-01  8.50000000E-01  7.20000000E-01  7.20000000E-01  7.20000000E-01
  8.50000000E-01  7.20000000E-01  7.20000000E-01  8.50000000E-01  8.50000000E-01
  7.20000000E-01  7.20000000E-01  7.20000000E-01  8.50000000E-01  7.20000000E-01
  7.20000000E-01  7.20000000E-01  8.50000000E-01  7.20000000E-01  8.50000000E-01
  8.50000000E-01  8.50000000E-01  7.20000000E-01  7.20000000E-01  8.50000000E-01
  7.20000000E-01  7.20000000E-01  8.50000000E-01  7.20000000E-01  8.50000000E-01
  8.50000000E-01  8.50000000E-01  7.20000000E-01  7.20000000E-01  7.20000000E-01
  7.20000000E-01  7.20000000E-01  8.50000000E-01  7.20000000E-01  7.20000000E-01
  7.20000000E-01  8.50000000E-01  7.20000000E-01  7.20000000E-01  8.50000000E-01
  8.50000000E-01  7.20000000E-01  7.20000000E-01  7.20000000E-01  8.50000000E-01
  7.20000000E-01  7.20000000E-01  7.20000000E-01  8.50000000E-01  7.20000000E-01
  8.50000000E-01  8.50000000E-01  8.50000000E-01  7.20000000E-01  7.20000000E-01
  8.50000000E-01  7.20000000E-01  7.20000000E-01  8.50000000E-01  7.20000000E-01
  8.50000000E-01  8.50000000E-01  8.50000000E-01  7.20000000E-01  7.20000000E-01
  7.20000000E-01  7.20000000E-01  7.20000000E-01  8.50000000E-01  7.20000000E-01
  7.20000000E-01  7.20000000E-01  8.50000000E-01  7.20000000E-01  7.20000000E-01
  8.50000000E-01  8.50000000E-01  7.20000000E-01  7.20000000E-01  7.20000000E-01
  8.50000000E-01  7.20000000E-01  7.20000000E-01  7.20000000E-01  8.50000000E-01
  7.20000000E-01  8.50000000E-01  8.50000000E-01  8.50000000E-01  7.20000000E-01
  7.20000000E-01  8.50000000E-01  7.20000000E-01  7.20000000E-01  8.50000000E-01
  7.20000000E-01  8.50000000E-01  8.50000000E-01  8.50000000E-01  7.20000000E-01
  7.20000000E-01  7.20000000E-01  7.20000000E-01  7.20000000E-01  8.50000000E-01
  7.20000000E-01  7.20000000E-01  7.20000000E-01  8.50000000E-01  7.20000000E-01
  7.20000000E-01  8.50000000E-01  8.50000000E-01  7.20000000E-01  7.20000000E-01
  7.20000000E-01  8.50000000E-01  7.20000000E-01  7.20000000E-01  7.20000000E-01
  8.50000000E-01  7.20000000E-01  8.50000000E-01  8.50000000E-01  8.50000000E-01
  7.20000000E-01  7.20000000E-01  8.50000000E-01  7.20000000E-01  7.20000000E-01
  8.50000000E-01  7.20000000E-01  8.50000000E-01  8.50000000E-01  8.50000000E-01
  7.20000000E-01  7.20000000E-01  7.20000000E-01  7.20000000E-01  7.20000000E-01
  8.50000000E-01  7.20000000E-01  7.20000000E-01  7.20000000E-01  8.50000000E-01
  7.20000000E-01  7.20000000E-01  8.50000000E-01  8.50000000E-01  7.20000000E-01
  7.20000000E-01  7.20000000E-01  8.50000000E-01  7.20000000E-01  7.20000000E-01
  7.20000000E-01  8.50000000E-01  7.20000000E-01  8.50000000E-01  8.50000000E-01
  8.50000000E-01  7.20000000E-01  7.20000000E-01  8.50000000E-01  7.20000000E-01
  7.20000000E-01  8.50000000E-01  7.20000000E-01  8.50000000E-01  8.50000000E-01
  8.50000000E-01  7.20000000E-01  7.20000000E-01  7.20000000E-01  7.20000000E-01
  7.20000000E-01  8.50000000E-01  7.20000000E-01  7.20000000E-01  7.20000000E-01
  8.50000000E-01  7.20000000E-01  7.20000000E-01  8.50000000E-01  8.50000000E-01
  7.20000000E-01  7.20000000E-01  7.20000000E-01  8.50000000E-01  7.20000000E-01
  7.20000000E-01  7.20000000E-01  8.50000000E-01  7.20000000E-01  8.50000000E-01
  8.50000000E-01  8.50000000E-01  7.20000000E-01  7.20000000E-01  8.50000000E-01
  7.20000000E-01  7.20000000E-01  8.50000000E-01  7.20000000E-01  8.50000000E-01
  8.50000000E-01  8.50000000E-01  7.20000000E-01  7.20000000E-01  7.20000000E-01
  7.20000000E-01  7.20000000E-01  8.50000000E-01  7.20000000E-01  7.20000000E-01
  7.20000000E-01  8.50000000E-01  7.20000000E-01  7.20000000E-01  8.50000000E-01
  8.50000000E-01  7.20000000E-01  7.20000000E-01  7.20000000E-01  8.50000000E-01
  7.20000000E-01  7.20000000E-01  7.20000000E-01  8.50000000E-01  7.20000000E-01
  8.50000000E-01  8.50000000E-01  8.50000000E-01  7.20000000E-01  7.20000000E-01
  8.50000000E-01  7.20000000E-01  7.20000000E-01  8.50000000E-01  7.20000000E-01
  8.50000000E-01  8.50000000E-01  8.50000000E-01  7.20000000E-01  7.20000000E-01
  7.20000000E-01  7.20000000E-01  7.20000000E-01  8.50000000E-01  7.20000000E-01
  7.20000000E-01  7.20000000E-01  8.50000000E-01  7.20000000E-01  7.20000000E-01
  8.50000000E-01  8.50000000E-01  7.20000000E-01  7.20000000E-01  7.20000000E-01
  8.50000000E-01  7.20000000E-01  7.20000000E-01  7.20000000E-01  8.50000000E-01
  7.20000000E-01  8.50000000E-01  8.50000000E-01  8.50000000E-01  7.20000000E-01
  7.20000000E-01  8.50000000E-01  7.20000000E-01  7.20000000E-01  8.50000000E-01
  7.20000000E-01  8.50000000E-01  8.50000000E-01  8.50000000E-01  7.20000000E-01
  7.20000000E-01  7.20000000E-01  7.20000000E-01  7.20000000E-01  8.50000000E-01
  7.20000000E-01  7.20000000E-01  7.20000000E-01  8.50000000E-01  7.20000000E-01
  7.20000000E-01  8.50000000E-01  8.50000000E-01  7.20000000E-01  7.20000000E-01
  7.20000000E-01  8.50000000E-01  7.20000000E-01  7.20000000E-01  7.20000000E-01
  8.50000000E-01  7.20000000E-01  8.50000000E-01  8.50000000E-01  8.50000000E-01
  7.20000000E-01  7.20000000E-01  8.50000000E-01  7.20000000E-01  7.20000000E-01
  8.50000000E-01  7.20000000E-01  8.50000000E-01  8.50000000E-01  8.50000000E-01
  7.20000000E-01  7.20000000E-01  7.20000000E-01  7.20000000E-01  7.20000000E-01
  8.50000000E-01  7.20000000E-01  7.20000000E-01  7.20000000E-01  8.50000000E-01
  7.20000000E-01  7.20000000E-01  8.50000000E-01  8.50000000E-01  7.20000000E-01
  7.20000000E-01  7.20000000E-01  8.50000000E-01  7.20000000E-01  7.20000000E-01
  7.20000000E-01  8.50000000E-01  7.20000000E-01  8.50000000E-01  8.50000000E-01
  8.50000000E-01  7.20000000E-01  7.20000000E-01  8.50000000E-01  7.20000000E-01
  7.20000000E-01  8.50000000E-01  7.20000000E-01  8.50000000E-01  8.50000000E-01
  8.50000000E-01  7.20000000E-01  7.20000000E-01  7.20000000E-01  7.20000000E-01
  7.20000000E-01  8.50000000E-01  7.20000000E-01  7.20000000E-01  7.20000000E-01
  8.50000000E-01  7.20000000E-01  7.20000000E-01  8.50000000E-01  8.50000000E-01
  7.20000000E-01  7.20000000E-01  7.20000000E-01  8.50000000E-01  7.20000000E-01
  7.20000000E-01  7.20000000E-01  8.50000000E-01  7.20000000E-01  8.50000000E-01
  8.50000000E-01  8.50000000E-01  7.20000000E-01  7.20000000E-01  8.50000000E-01
  7.20000000E-01  7.20000000E-01  8.50000000E-01  7.20000000E-01  8.50000000E-01
  8.50000000E-01  8.50000000E-01  7.20000000E-01  7.20000000E-01  7.20000000E-01
  7.20000000E-01  7.20000000E-01  8.50000000E-01  7.20000000E-01  7.20000000E-01
  7.20000000E-01  8.50000000E-01  7.20000000E-01  7.20000000E-01  8.50000000E-01
  8.50000000E-01  7.20000000E-01  7.20000000E-01  7.20000000E-01  8.50000000E-01
  7.20000000E-01  7.20000000E-01  7.20000000E-01  8.50000000E-01  7.20000000E-01
  8.50000000E-01  8.50000000E-01  8.50000000E-01  7.20000000E-01  7.20000000E-01
  8.50000000E-01  7.20000000E-01  7.20000000E-01  8.50000000E-01  7.20000000E-01
  8.50000000E-01  8.50000000E-01  8.50000000E-01  7.20000000E-01  7.20000000E-01
  7.20000000E-01  7.20000000E-01  7.20000000E-01  8.50000000E-01  7.20000000E-01
  7.20000000E-01  7.20000000E-01  8.50000000E-01  7.20000000E-01  7.20000000E-01
  8.50000000E-01  8.50000000E-01  7.20000000E-01  7.20000000E-01  7.20000000E-01
  8.50000000E-01  7.20000000E-01  7.20000000E-01  7.20000000E-01  8.50000000E-01
  7.20000000E-01  8.50000000E-01  8.50000000E-01  8.50000000E-01  7.20000000E-01
  7.20000000E-01  8.50000000E-01  7.20000000E-01  7.20000000E-01  8.50000000E-01
  7.20000000E-01  8.50000000E-01  8.50000000E-01  8.50000000E-01  7.20000000E-01
  7.20000000E-01  7.20000000E-01  7.20000000E-01  7.20000000E-01  8.50000000E-01
  7.20000000E-01  7.20000000E-01  7.20000000E-01  8.50000000E-01  7.20000000E-01
  7.20000000E-01  8.50000000E-01  8.50000000E-01  7.20000000E-01  7.20000000E-01
  7.20000000E-01  8.50000000E-01  7.20000000E-01  7.20000000E-01  7.20000000E-01
  8.50000000E-01  7.20000000E-01  8.50000000E-01  8.50000000E-01  8.50000000E-01
  7.20000000E-01  7.20000000E-01  8.50000000E-01  7.20000000E-01  7.20000000E-01
  8.50000000E-01  7.20000000E-01  8.50000000E-01  8.50000000E-01  8.50000000E-01
  7.20000000E-01  7.20000000E-01  7.20000000E-01  7.20000000E-01  7.20000000E-01
  8.50000000E-01  7.20000000E-01  7.20000000E-01  7.20000000E-01  8.50000000E-01
  7.20000000E-01  7.20000000E-01  8.50000000E-01  8.50000000E-01  7.20000000E-01
  7.20000000E-01  7.20000000E-01  8.50000000E-01  7.20000000E-01  7.20000000E-01
  7.20000000E-01  8.50000000E-01  7.20000000E-01  8.50000000E-01  8.50000000E-01
  8.50000000E-01  7.20000000E-01  7.20000000E-01  8.50000000E-01  7.20000000E-01
  7.20000000E-01  8.50000000E-01  7.20000000E-01  8.50000000E-01  8.50000000E-01
  8.50000000E-01  7.20000000E-01  7.20000000E-01  7.20000000E-01  7.20000000E-01
  7.20000000E-01  8.50000000E-01  7.20000000E-01  7.20000000E-01  7.20000000E-01
  8.50000000E-01  7.20000000E-01  7.20000000E-01  8.50000000E-01  8.50000000E-01
  7.20000000E-01  7.20000000E-01  7.20000000E-01  8.50000000E-01  7.20000000E-01
  7.20000000E-01  7.20000000E-01  8.50000000E-01  7.20000000E-01  8.50000000E-01
  8.50000000E-01  8.50000000E-01  7.20000000E-01  7.20000000E-01  8.50000000E-01
  7.20000000E-01  7.20000000E-01  8.50000000E-01  7.20000000E-01  8.50000000E-01
  8.50000000E-01  8.50000000E-01  7.20000000E-01  7.20000000E-01  7.20000000E-01
  7.20000000E-01  7.20000000E-01  8.50000000E-01  7.20000000E-01  7.20000000E-01
  7.20000000E-01  8.50000000E-01  7.20000000E-01  7.20000000E-01  8.50000000E-01
  8.50000000E-01  7.20000000E-01  7.20000000E-01  7.20000000E-01  8.50000000E-01
  7.20000000E-01  7.20000000E-01  7.20000000E-01  8.50000000E-01  7.20000000E-01
  8.50000000E-01  8.50000000E-01  8.50000000E-01  7.20000000E-01  7.20000000E-01
  8.50000000E-01  7.20000000E-01  7.20000000E-01  8.50000000E-01  7.20000000E-01
  8.50000000E-01  8.50000000E-01  8.50000000E-01  7.20000000E-01  7.20000000E-01
  7.20000000E-01  7.20000000E-01  7.20000000E-01  8.50000000E-01  7.20000000E-01
  7.20000000E-01  7.20000000E-01  8.50000000E-01  7.20000000E-01  7.20000000E-01
  8.50000000E-01  8.50000000E-01  7.20000000E-01  7.20000000E-01  7.20000000E-01
  8.50000000E-01  7.20000000E-01  7.20000000E-01  7.20000000E-01  8.50000000E-01
  7.20000000E-01  8.50000000E-01  8.50000000E-01  8.50000000E-01  7.20000000E-01
  7.20000000E-01  8.50000000E-01  7.20000000E-01  7.20000000E-01  8.50000000E-01
  7.20000000E-01  8.50000000E-01  8.50000000E-01  8.50000000E-01  7.20000000E-01
  7.20000000E-01  7.20000000E-01  7.20000000E-01  7.20000000E-01  8.50000000E-01
  7.20000000E-01  7.20000000E-01  7.20000000E-01  8.50000000E-01  7.20000000E-01
  7.20000000E-01  8.50000000E-01  8.50000000E-01  7.20000000E-01  7.20000000E-01
  7.20000000E-01  8.50000000E-01  7.20000000E-01  7.20000000E-01  7.20000000E-01
  8.50000000E-01  7.20000000E-01  8.50000000E-01  8.50000000E-01  8.50000000E-01
  7.20000000E-01  7.20000000E-01  8.50000000E-01  7.20000000E-01  7.20000000E-01
  8.50000000E-01  7.20000000E-01  8.50000000E-01  8.50000000E-01  8.50000000E-01
  7.20000000E-01  7.20000000E-01  7.20000000E-01  7.20000000E-01  7.20000000E-01
  8.50000000E-01  7.20000000E-01  7.20000000E-01  7.20000000E-01  8.50000000E-01
  7.20000000E-01  7.20000000E-01  8.50000000E-01  8.50000000E-01  7.20000000E-01
  7.20000000E-01  7.20000000E-01  8.50000000E-01  7.20000000E-01  7.20000000E-01
  7.20000000E-01  8.50000000E-01  7.20000000E-01  8.50000000E-01  8.50000000E-01
  8.50000000E-01  7.20000000E-01  7.20000000E-01  8.50000000E-01  7.20000000E-01
  7.20000000E-01  8.50000000E-01  7.20000000E-01  8.50000000E-01  8.50000000E-01
  8.50000000E-01  7.20000000E-01  7.20000000E-01  7.20000000E-01  7.20000000E-01
  7.20000000E-01  8.50000000E-01  7.20000000E-01  7.20000000E-01  7.20000000E-01
  8.50000000E-01  7.20000000E-01  7.20000000E-01  8.50000000E-01  8.50000000E-01
  7.20000000E-01  7.20000000E-01  7.20000000E-01  8.50000000E-01  7.20000000E-01
  7.20000000E-01  7.20000000E-01  8.50000000E-01  7.20000000E-01  8.50000000E-01
  8.50000000E-01  8.50000000E-01  7.20000000E-01  7.20000000E-01  8.50000000E-01
  7.20000000E-01  7.20000000E-01  8.50000000E-01  7.20000000E-01  8.50000000E-01
  8.50000000E-01  8.50000000E-01  7.20000000E-01  7.20000000E-01  7.20000000E-01
  7.20000000E-01  7.20000000E-01  8.50000000E-01  7.20000000E-01  7.20000000E-01
  7.20000000E-01  8.50000000E-01  7.20000000E-01  7.20000000E-01  8.50000000E-01
  8.50000000E-01  7.20000000E-01  7.20000000E-01  7.20000000E-01  8.50000000E-01
  7.20000000E-01  7.20000000E-01  7.20000000E-01  8.50000000E-01  7.20000000E-01
  8.50000000E-01  8.50000000E-01  8.50000000E-01  7.20000000E-01  7.20000000E-01
  8.50000000E-01  7.20000000E-01  7.20000000E-01  8.50000000E-01  7.20000000E-01
  8.50000000E-01  8.50000000E-01  8.50000000E-01  7.20000000E-01  7.20000000E-01
  7.20000000E-01  7.20000000E-01  7.20000000E-01  8.50000000E-01  7.20000000E-01
  7.20000000E-01  7.20000000E-01  8.50000000E-01  7.20000000E-01  7.20000000E-01
  8.50000000E-01  8.50000000E-01  7.20000000E-01  7.20000000E-01  7.20000000E-01
  8.50000000E-01  7.20000000E-01  7.20000000E-01  7.20000000E-01  8.50000000E-01
  7.20000000E-01  8.50000000E-01  8.50000000E-01  8.50000000E-01  7.20000000E-01
  7.20000000E-01  8.50000000E-01  7.20000000E-01  7.20000000E-01  8.50000000E-01
  7.20000000E-01  8.50000000E-01  8.50000000E-01  8.50000000E-01  7.20000000E-01
  7.20000000E-01  7.20000000E-01  7.20000000E-01  7.20000000E-01  8.50000000E-01
  7.20000000E-01  7.20000000E-01  7.20000000E-01  8.50000000E-01  7.20000000E-01
  7.20000000E-01  8.50000000E-01  8.50000000E-01  7.20000000E-01  7.20000000E-01
  7.20000000E-01  8.50000000E-01  7.20000000E-01  7.20000000E-01  7.20000000E-01
  8.50000000E-01  7.20000000E-01  8.50000000E-01  8.50000000E-01  8.50000000E-01
  7.20000000E-01  7.20000000E-01  8.50000000E-01  7.20000000E-01  7.20000000E-01
  8.50000000E-01  7.20000000E-01  8.50000000E-01  8.50000000E-01  8.50000000E-01
  7.20000000E-01  7.20000000E-01  7.20000000E-01  7.20000000E-01  7.20000000E-01
  8.50000000E-01  7.20000000E-01  7.20000000E-01  7.20000000E-01  8.50000000E-01
  7.20000000E-01  7.20000000E-01  8.50000000E-01  8.50000000E-01  7.20000000E-01
  7.20000000E-01  7.20000000E-01  8.50000000E-01  7.20000000E-01  7.20000000E-01
  7.20000000E-01  8.50000000E-01  7.20000000E-01  8.50000000E-01  8.50000000E-01
  8.50000000E-01  7.20000000E-01  7.20000000E-01  8.50000000E-01  7.20000000E-01
  7.20000000E-01  8.50000000E-01  7.20000000E-01  8.50000000E-01  8.50000000E-01
  8.50000000E-01  7.20000000E-01  7.20000000E-01  7.20000000E-01  7.20000000E-01
  7.20000000E-01  8.50000000E-01  7.20000000E-01  7.20000000E-01  7.20000000E-01
  8.50000000E-01  7.20000000E-01  7.20000000E-01  8.50000000E-01  8.50000000E-01
  7.20000000E-01  7.20000000E-01  7.20000000E-01  8.50000000E-01  7.20000000E-01
  7.20000000E-01  7.20000000E-01  8.50000000E-01  7.20000000E-01  8.50000000E-01
  8.50000000E-01  8.50000000E-01  7.20000000E-01  7.20000000E-01  8.50000000E-01
  7.20000000E-01  7.20000000E-01  8.50000000E-01  7.20000000E-01  8.50000000E-01
  8.50000000E-01  8.50000000E-01  7.20000000E-01  7.20000000E-01  7.20000000E-01
  7.20000000E-01  7.20000000E-01  8.50000000E-01  7.20000000E-01  7.20000000E-01
  7.20000000E-01  8.50000000E-01  7.20000000E-01  7.20000000E-01  8.50000000E-01
  8.50000000E-01  7.20000000E-01  7.20000000E-01  7.20000000E-01  8.50000000E-01
  7.20000000E-01  7.20000000E-01  7.20000000E-01  8.50000000E-01  7.20000000E-01
  8.50000000E-01  8.50000000E-01  8.50000000E-01  7.20000000E-01  7.20000000E-01
  8.50000000E-01  7.20000000E-01  7.20000000E-01  8.50000000E-01  7.20000000E-01
  8.50000000E-01  8.50000000E-01  8.50000000E-01  7.20000000E-01  7.20000000E-01
  7.20000000E-01  7.20000000E-01  7.20000000E-01  8.50000000E-01  7.20000000E-01
  7.20000000E-01  7.20000000E-01  8.50000000E-01  7.20000000E-01  7.20000000E-01
  8.50000000E-01  8.50000000E-01  7.20000000E-01  7.20000000E-01  7.20000000E-01
  8.50000000E-01  7.20000000E-01  7.20000000E-01  7.20000000E-01  8.50000000E-01
  7.20000000E-01  8.50000000E-01  8.50000000E-01  8.50000000E-01  7.20000000E-01
  7.20000000E-01  8.50000000E-01  7.20000000E-01  7.20000000E-01  8.50000000E-01
  7.20000000E-01  8.50000000E-01  8.50000000E-01  8.50000000E-01  7.20000000E-01
  7.20000000E-01  7.20000000E-01  7.20000000E-01  7.20000000E-01  8.50000000E-01
  7.20000000E-01  7.20000000E-01  7.20000000E-01  8.50000000E-01  7.20000000E-01
  7.20000000E-01  8.50000000E-01  8.50000000E-01  7.20000000E-01  7.20000000E-01
  7.20000000E-01  8.50000000E-01  7.20000000E-01  7.20000000E-01  7.20000000E-01
  8.50000000E-01  7.20000000E-01  8.50000000E-01  8.50000000E-01  8.50000000E-01
  7.20000000E-01  7.20000000E-01  8.50000000E-01  7.20000000E-01  7.20000000E-01
  8.50000000E-01  7.20000000E-01  8.50000000E-01  8.50000000E-01  8.50000000E-01
  7.20000000E-01  7.20000000E-01  7.20000000E-01  7.20000000E-01  7.20000000E-01
  8.50000000E-01  7.20000000E-01  7.20000000E-01  7.20000000E-01  8.50000000E-01
  7.20000000E-01  7.20000000E-01  8.50000000E-01  8.50000000E-01  7.20000000E-01
  7.20000000E-01  7.20000000E-01  8.50000000E-01  7.20000000E-01  7.20000000E-01
  7.20000000E-01  8.50000000E-01  7.20000000E-01  8.50000000E-01  8.50000000E-01
  8.50000000E-01  7.20000000E-01  7.20000000E-01  8.50000000E-01  7.20000000E-01
  7.20000000E-01  8.50000000E-01  7.20000000E-01  8.50000000E-01  8.50000000E-01
  8.50000000E-01  7.20000000E-01  7.20000000E-01  7.20000000E-01  7.20000000E-01
  7.20000000E-01  8.50000000E-01  7.20000000E-01  7.20000000E-01  7.20000000E-01
  8.50000000E-01  7.20000000E-01  7.20000000E-01  8.50000000E-01  8.50000000E-01
  7.20000000E-01  7.20000000E-01  7.20000000E-01  8.50000000E-01  7.20000000E-01
  7.20000000E-01  7.20000000E-01  8.50000000E-01  7.20000000E-01  8.50000000E-01
  8.50000000E-01  8.50000000E-01  7.20000000E-01  7.20000000E-01  8.50000000E-01
  7.20000000E-01  7.20000000E-01  8.50000000E-01  7.20000000E-01  8.50000000E-01
  8.50000000E-01  8.50000000E-01  7.20000000E-01  7.20000000E-01  7.20000000E-01
  7.20000000E-01  7.20000000E-01  8.50000000E-01  7.20000000E-01  7.20000000E-01
  7.20000000E-01  8.50000000E-01  7.20000000E-01  7.20000000E-01  8.50000000E-01
  8.50000000E-01  7.20000000E-01  7.20000000E-01  7.20000000E-01  8.50000000E-01
  7.20000000E-01  7.20000000E-01  7.20000000E-01  8.50000000E-01  7.20000000E-01
  8.50000000E-01  8.50000000E-01  8.50000000E-01  7.20000000E-01  7.20000000E-01
  8.50000000E-01  7.20000000E-01  7.20000000E-01  8.50000000E-01  7.20000000E-01
  8.50000000E-01  8.50000000E-01  8.50000000E-01  7.20000000E-01  7.20000000E-01
  7.20000000E-01  7.20000000E-01  7.20000000E-01  8.50000000E-01  7.20000000E-01
  7.20000000E-01  7.20000000E-01  8.50000000E-01  7.20000000E-01  7.20000000E-01
  8.50000000E-01  8.50000000E-01  7.20000000E-01  7.20000000E-01  7.20000000E-01
  8.50000000E-01  7.20000000E-01  7.20000000E-01  7.20000000E-01  8.50000000E-01
  7.20000000E-01  8.50000000E-01  8.50000000E-01  8.50000000E-01  7.20000000E-01
  7.20000000E-01  8.50000000E-01  7.20000000E-01  7.20000000E-01  8.50000000E-01
  7.20000000E-01  8.50000000E-01  8.50000000E-01  8.50000000E-01  7.20000000E-01
  7.20000000E-01  7.20000000E-01  7.20000000E-01  7.20000000E-01  8.50000000E-01
  7.20000000E-01  7.20000000E-01  7.20000000E-01  8.50000000E-01  7.20000000E-01
  7.20000000E-01  8.50000000E-01  8.50000000E-01  7.20000000E-01  7.20000000E-01
  7.20000000E-01  8.50000000E-01  7.20000000E-01  7.20000000E-01  7.20000000E-01
  8.50000000E-01  7.20000000E-01  8.50000000E-01  8.50000000E-01  8.50000000E-01
  7.20000000E-01  7.20000000E-01  8.50000000E-01  7.20000000E-01  7.20000000E-01
  8.50000000E-01  7.20000000E-01  8.50000000E-01  8.50000000E-01  8.50000000E-01
  7.20000000E-01  7.20000000E-01  7.20000000E-01  7.20000000E-01  7.20000000E-01
  8.50000000E-01  7.20000000E-01  7.20000000E-01  7.20000000E-01  8.50000000E-01
  7.20000000E-01  7.20000000E-01  8.50000000E-01  8.50000000E-01  7.20000000E-01
  7.20000000E-01  7.20000000E-01  8.50000000E-01  7.20000000E-01  7.20000000E-01
  7.20000000E-01  8.50000000E-01  7.20000000E-01  8.50000000E-01  8.50000000E-01
  8.50000000E-01  7.20000000E-01  7.20000000E-01  8.50000000E-01  7.20000000E-01
  7.20000000E-01  8.50000000E-01  7.20000000E-01  8.50000000E-01  8.50000000E-01
  8.50000000E-01  7.20000000E-01  7.20000000E-01  7.20000000E-01  7.20000000E-01
  7.20000000E-01  8.50000000E-01  7.20000000E-01  7.20000000E-01  7.20000000E-01
  8.50000000E-01  7.20000000E-01  7.20000000E-01  8.50000000E-01  8.50000000E-01
  7.20000000E-01  7.20000000E-01  7.20000000E-01  8.50000000E-01  7.20000000E-01
  7.20000000E-01  7.20000000E-01  8.50000000E-01  7.20000000E-01  8.50000000E-01
  8.50000000E-01  8.50000000E-01  7.20000000E-01  7.20000000E-01  8.50000000E-01
  7.20000000E-01  7.20000000E-01  8.50000000E-01  7.20000000E-01  8.50000000E-01
  8.50000000E-01  8.50000000E-01  7.20000000E-01  7.20000000E-01  7.20000000E-01
  7.20000000E-01  7.20000000E-01  8.50000000E-01  7.20000000E-01  7.20000000E-01
  7.20000000E-01  8.50000000E-01  7.20000000E-01  7.20000000E-01  8.50000000E-01
  8.50000000E-01  7.20000000E-01  7.20000000E-01  7.20000000E-01  8.50000000E-01
  7.20000000E-01  7.20000000E-01  7.20000000E-01  8.50000000E-01  7.20000000E-01
  8.50000000E-01  8.50000000E-01  8.50000000E-01  7.20000000E-01  7.20000000E-01
  8.50000000E-01  7.20000000E-01  7.20000000E-01  8.50000000E-01  7.20000000E-01
  8.50000000E-01  8.50000000E-01  8.50000000E-01  7.20000000E-01  7.20000000E-01
  7.20000000E-01  7.20000000E-01  7.20000000E-01  8.50000000E-01  7.20000000E-01
  7.20000000E-01  7.20000000E-01  8.50000000E-01  7.20000000E-01  7.20000000E-01
  8.50000000E-01  8.50000000E-01  7.20000000E-01  7.20000000E-01  7.20000000E-01
  8.50000000E-01  7.20000000E-01  7.20000000E-01  7.20000000E-01  8.50000000E-01
  7.20000000E-01  8.50000000E-01  8.50000000E-01  8.50000000E-01  7.20000000E-01
  7.20000000E-01  8.50000000E-01  7.20000000E-01  7.20000000E-01  8.50000000E-01
  7.20000000E-01  8.50000000E-01  8.50000000E-01  8.50000000E-01  7.20000000E-01
  7.20000000E-01  7.20000000E-01  7.20000000E-01  7.20000000E-01  8.50000000E-01
  7.20000000E-01  7.20000000E-01  7.20000000E-01  8.50000000E-01  7.20000000E-01
  7.20000000E-01  8.50000000E-01  8.50000000E-01  7.20000000E-01  7.20000000E-01
  7.20000000E-01  8.50000000E-01  7.20000000E-01  7.20000000E-01  7.20000000E-01
  8.50000000E-01  7.20000000E-01  8.50000000E-01  8.50000000E-01  8.50000000E-01
  7.20000000E-01  7.20000000E-01  8.50000000E-01  7.20000000E-01  7.20000000E-01
  8.50000000E-01  7.20000000E-01  8.50000000E-01  8.50000000E-01  8.50000000E-01
  7.20000000E-01  7.20000000E-01  7.20000000E-01  7.20000000E-01  7.20000000E-01
  8.50000000E-01  7.20000000E-01  7.20000000E-01  7.20000000E-01  8.50000000E-01
  7.20000000E-01  7.20000000E-01  8.50000000E-01  8.50000000E-01  7.20000000E-01
  7.20000000E-01  7.20000000E-01  8.50000000E-01  7.20000000E-01  7.20000000E-01
  7.20000000E-01  8.50000000E-01  7.20000000E-01  8.50000000E-01  8.50000000E-01
  8.50000000E-01  7.20000000E-01  7.20000000E-01  8.50000000E-01  7.20000000E-01
  7.20000000E-01  8.50000000E-01  7.20000000E-01  8.50000000E-01  8.50000000E-01
  8.50000000E-01  7.20000000E-01  7.20000000E-01  7.20000000E-01  7.20000000E-01
  7.20000000E-01  8.50000000E-01  7.20000000E-01  7.20000000E-01  7.20000000E-01
  8.50000000E-01  7.20000000E-01  7.20000000E-01  8.50000000E-01  8.50000000E-01
  7.20000000E-01  7.20000000E-01  7.20000000E-01  8.50000000E-01  7.20000000E-01
  7.20000000E-01  7.20000000E-01  8.50000000E-01  7.20000000E-01  8.50000000E-01
  8.50000000E-01  8.50000000E-01  7.20000000E-01  7.20000000E-01  8.50000000E-01
  7.20000000E-01  7.20000000E-01  8.50000000E-01  7.20000000E-01  8.50000000E-01
  8.50000000E-01  8.50000000E-01  7.20000000E-01  7.20000000E-01  7.20000000E-01
  7.20000000E-01  7.20000000E-01  8.50000000E-01  7.20000000E-01  7.20000000E-01
  7.20000000E-01  8.50000000E-01  7.20000000E-01  7.20000000E-01  8.50000000E-01
  8.50000000E-01  7.20000000E-01  7.20000000E-01  7.20000000E-01  8.50000000E-01
  7.20000000E-01  7.20000000E-01  7.20000000E-01  8.50000000E-01  7.20000000E-01
  8.50000000E-01  8.50000000E-01  8.50000000E-01  7.20000000E-01  7.20000000E-01
  8.50000000E-01  7.20000000E-01  7.20000000E-01  8.50000000E-01  7.20000000E-01
  8.50000000E-01  8.50000000E-01  8.50000000E-01  7.20000000E-01  7.20000000E-01
  7.20000000E-01  7.20000000E-01  7.20000000E-01  8.50000000E-01  7.20000000E-01
  7.20000000E-01  7.20000000E-01  8.50000000E-01  7.20000000E-01  7.20000000E-01
  8.50000000E-01  8.50000000E-01  7.20000000E-01  7.20000000E-01  7.20000000E-01
  8.50000000E-01  7.20000000E-01  7.20000000E-01  7.20000000E-01  8.50000000E-01
  7.20000000E-01  8.50000000E-01  8.50000000E-01  8.50000000E-01  7.20000000E-01
  7.20000000E-01  8.50000000E-01  7.20000000E-01  7.20000000E-01  8.50000000E-01
  7.20000000E-01  8.50000000E-01  8.50000000E-01  8.50000000E-01  7.20000000E-01
  7.20000000E-01  7.20000000E-01  7.20000000E-01  7.20000000E-01  8.50000000E-01
  7.20000000E-01  7.20000000E-01  7.20000000E-01  8.50000000E-01  7.20000000E-01
  7.20000000E-01  8.50000000E-01  8.50000000E-01  7.20000000E-01  7.20000000E-01
  7.20000000E-01  8.50000000E-01  7.20000000E-01  7.20000000E-01  7.20000000E-01
  8.50000000E-01  7.20000000E-01  8.50000000E-01  8.50000000E-01  8.50000000E-01
  7.20000000E-01  7.20000000E-01  8.50000000E-01  7.20000000E-01  7.20000000E-01
  8.50000000E-01  7.20000000E-01  8.50000000E-01  8.50000000E-01  8.50000000E-01
  7.20000000E-01  7.20000000E-01  7.20000000E-01  7.20000000E-01  7.20000000E-01
  8.50000000E-01  7.20000000E-01  7.20000000E-01  7.20000000E-01  8.50000000E-01
  7.20000000E-01  7.20000000E-01  8.50000000E-01  8.50000000E-01  7.20000000E-01
  7.20000000E-01  7.20000000E-01  8.50000000E-01  7.20000000E-01  7.20000000E-01
  7.20000000E-01  8.50000000E-01  7.20000000E-01  8.50000000E-01  8.50000000E-01
  8.50000000E-01  7.20000000E-01  7.20000000E-01  8.50000000E-01  7.20000000E-01
  7.20000000E-01  8.50000000E-01  7.20000000E-01  8.50000000E-01  8.50000000E-01
  8.50000000E-01  7.20000000E-01  7.20000000E-01  7.20000000E-01  7.20000000E-01
  7.20000000E-01  8.50000000E-01  7.20000000E-01  7.20000000E-01  7.20000000E-01
  8.50000000E-01  7.20000000E-01  7.20000000E-01  8.50000000E-01  8.50000000E-01
  7.20000000E-01  7.20000000E-01  7.20000000E-01  8.50000000E-01  7.20000000E-01
  7.20000000E-01  7.20000000E-01  8.50000000E-01  7.20000000E-01  8.50000000E-01
  8.50000000E-01  8.50000000E-01  7.20000000E-01  7.20000000E-01  8.50000000E-01
  7.20000000E-01  7.20000000E-01  8.50000000E-01  7.20000000E-01  8.50000000E-01
  8.50000000E-01  8.50000000E-01  7.20000000E-01  7.20000000E-01  7.20000000E-01
  7.20000000E-01  7.20000000E-01  8.50000000E-01  7.20000000E-01  7.20000000E-01
  7.20000000E-01  8.50000000E-01  7.20000000E-01  7.20000000E-01  8.50000000E-01
  8.50000000E-01  7.20000000E-01  7.20000000E-01  7.20000000E-01  8.50000000E-01
  7.20000000E-01  7.20000000E-01  7.20000000E-01  8.50000000E-01  7.20000000E-01
  8.50000000E-01  8.50000000E-01  8.50000000E-01  7.20000000E-01  7.20000000E-01
  8.50000000E-01  7.20000000E-01  7.20000000E-01  8.50000000E-01  7.20000000E-01
  8.50000000E-01  8.50000000E-01  8.50000000E-01  7.20000000E-01  7.20000000E-01
  7.20000000E-01  7.20000000E-01  7.20000000E-01  8.50000000E-01  7.20000000E-01
  7.20000000E-01  7.20000000E-01  8.50000000E-01  7.20000000E-01  7.20000000E-01
  8.50000000E-01  8.50000000E-01  7.20000000E-01  7.20000000E-01  7.20000000E-01
  8.50000000E-01  7.20000000E-01  7.20000000E-01  7.20000000E-01  8.50000000E-01
  7.20000000E-01  8.50000000E-01  8.50000000E-01  8.50000000E-01  7.20000000E-01
  7.20000000E-01  8.50000000E-01  7.20000000E-01  7.20000000E-01  8.50000000E-01
  7.20000000E-01  8.50000000E-01  8.50000000E-01  8.50000000E-01  7.20000000E-01
  7.20000000E-01  7.20000000E-01  7.20000000E-01  7.20000000E-01  8.50000000E-01
  7.20000000E-01  7.20000000E-01  7.20000000E-01  8.50000000E-01  7.20000000E-01
  7.20000000E-01  8.50000000E-01  8.50000000E-01  7.20000000E-01  7.20000000E-01
  7.20000000E-01  8.50000000E-01  7.20000000E-01  7.20000000E-01  7.20000000E-01
  8.50000000E-01  7.20000000E-01  8.50000000E-01  8.50000000E-01  8.50000000E-01
  7.20000000E-01  7.20000000E-01  8.50000000E-01  7.20000000E-01  7.20000000E-01
  8.50000000E-01  7.20000000E-01  8.50000000E-01  8.50000000E-01  8.50000000E-01
  7.20000000E-01  7.20000000E-01  7.20000000E-01  7.20000000E-01  7.20000000E-01
  8.50000000E-01  7.20000000E-01  7.20000000E-01  7.20000000E-01  8.50000000E-01
  7.20000000E-01  7.20000000E-01  8.50000000E-01  8.50000000E-01  7.20000000E-01
  7.20000000E-01  7.20000000E-01  8.50000000E-01  7.20000000E-01  7.20000000E-01
  7.20000000E-01  8.50000000E-01  7.20000000E-01  8.50000000E-01  8.50000000E-01
  8.50000000E-01  7.20000000E-01  7.20000000E-01  8.50000000E-01  7.20000000E-01
  7.20000000E-01  8.50000000E-01  7.20000000E-01  8.50000000E-01  8.50000000E-01
  8.50000000E-01  7.20000000E-01  7.20000000E-01  7.20000000E-01  7.20000000E-01
  7.20000000E-01  8.50000000E-01  7.20000000E-01  7.20000000E-01  7.20000000E-01
  8.50000000E-01  7.20000000E-01  7.20000000E-01  8.50000000E-01  8.50000000E-01
  7.20000000E-01  7.20000000E-01  7.20000000E-01  8.50000000E-01  7.20000000E-01
  7.20000000E-01  7.20000000E-01  8.50000000E-01  7.20000000E-01  8.50000000E-01
  8.50000000E-01  8.50000000E-01  7.20000000E-01  7.20000000E-01  8.50000000E-01
  7.20000000E-01  7.20000000E-01  8.50000000E-01  7.20000000E-01  8.50000000E-01
  8.50000000E-01  8.50000000E-01  7.20000000E-01  7.20000000E-01  7.20000000E-01
  7.20000000E-01  7.20000000E-01  8.50000000E-01  7.20000000E-01  7.20000000E-01
  7.20000000E-01  8.50000000E-01  7.20000000E-01  7.20000000E-01  8.50000000E-01
  8.50000000E-01  7.20000000E-01  7.20000000E-01  7.20000000E-01  8.50000000E-01
  7.20000000E-01  7.20000000E-01  7.20000000E-01  8.50000000E-01  7.20000000E-01
  8.50000000E-01  8.50000000E-01  8.50000000E-01  7.20000000E-01  7.20000000E-01
  8.50000000E-01  7.20000000E-01  7.20000000E-01  8.50000000E-01  7.20000000E-01
  8.50000000E-01  8.50000000E-01  8.50000000E-01  7.20000000E-01  7.20000000E-01
  7.20000000E-01  7.20000000E-01  7.20000000E-01  8.50000000E-01  7.20000000E-01
  7.20000000E-01  7.20000000E-01  8.50000000E-01  7.20000000E-01  7.20000000E-01
  8.50000000E-01  8.50000000E-01  7.20000000E-01  7.20000000E-01  7.20000000E-01
  8.50000000E-01  7.20000000E-01  7.20000000E-01  7.20000000E-01  8.50000000E-01
  7.20000000E-01  8.50000000E-01  8.50000000E-01  8.50000000E-01  7.20000000E-01
  7.20000000E-01  8.50000000E-01  7.20000000E-01  7.20000000E-01  8.50000000E-01
  7.20000000E-01  8.50000000E-01  8.50000000E-01  8.50000000E-01  7.20000000E-01
  7.20000000E-01  7.20000000E-01  7.20000000E-01  7.20000000E-01  8.50000000E-01
  7.20000000E-01  7.20000000E-01  7.20000000E-01  8.50000000E-01  7.20000000E-01
  7.20000000E-01  8.50000000E-01  8.50000000E-01  7.20000000E-01  7.20000000E-01
  7.20000000E-01  8.50000000E-01  7.20000000E-01  7.20000000E-01  7.20000000E-01
  8.50000000E-01  7.20000000E-01  8.50000000E-01  8.50000000E-01  8.50000000E-01
  7.20000000E-01  7.20000000E-01  8.50000000E-01  7.20000000E-01  7.20000000E-01
  8.50000000E-01  7.20000000E-01  8.50000000E-01  8.50000000E-01  8.50000000E-01
  7.20000000E-01  7.20000000E-01  7.20000000E-01  7.20000000E-01  7.20000000E-01
  8.50000000E-01  7.20000000E-01  7.20000000E-01  7.20000000E-01  8.50000000E-01
  7.20000000E-01  7.20000000E-01  8.50000000E-01  8.50000000E-01  7.20000000E-01
  7.20000000E-01  7.20000000E-01  8.50000000E-01  7.20000000E-01  7.20000000E-01
  7.20000000E-01  8.50000000E-01  7.20000000E-01  8.50000000E-01  8.50000000E-01
  8.50000000E-01  7.20000000E-01  7.20000000E-01  8.50000000E-01  7.20000000E-01
  7.20000000E-01  8.50000000E-01  7.20000000E-01  8.50000000E-01  8.50000000E-01
  8.50000000E-01  7.20000000E-01  7.20000000E-01  7.20000000E-01  7.20000000E-01
  7.20000000E-01  8.50000000E-01  7.20000000E-01  7.20000000E-01  7.20000000E-01
  8.50000000E-01  7.20000000E-01  7.20000000E-01  8.50000000E-01  8.50000000E-01
  7.20000000E-01  7.20000000E-01  7.20000000E-01  8.50000000E-01  7.20000000E-01
  7.20000000E-01  7.20000000E-01  8.50000000E-01  7.20000000E-01  8.50000000E-01
  8.50000000E-01  8.50000000E-01  7.20000000E-01  7.20000000E-01  8.50000000E-01
  7.20000000E-01  7.20000000E-01  8.50000000E-01  7.20000000E-01  8.50000000E-01
  8.50000000E-01  8.50000000E-01  7.20000000E-01  7.20000000E-01  7.20000000E-01
  7.20000000E-01  7.20000000E-01  8.50000000E-01  7.20000000E-01  7.20000000E-01
  7.20000000E-01  8.50000000E-01  7.20000000E-01  7.20000000E-01  8.50000000E-01
  8.50000000E-01  7.20000000E-01  7.20000000E-01  7.20000000E-01  8.50000000E-01
  7.20000000E-01  7.20000000E-01  7.20000000E-01  8.50000000E-01  7.20000000E-01
  8.50000000E-01  8.50000000E-01  8.50000000E-01  7.20000000E-01  7.20000000E-01
  8.50000000E-01  7.20000000E-01  7.20000000E-01  8.50000000E-01  7.20000000E-01
  8.50000000E-01  8.50000000E-01  8.50000000E-01  7.20000000E-01  7.20000000E-01
  7.20000000E-01  7.20000000E-01  7.20000000E-01  8.50000000E-01  7.20000000E-01
  7.20000000E-01  7.20000000E-01  8.50000000E-01  7.20000000E-01  7.20000000E-01
  8.50000000E-01  8.50000000E-01  7.20000000E-01  7.20000000E-01  7.20000000E-01
  8.50000000E-01  7.20000000E-01  7.20000000E-01  7.20000000E-01  8.50000000E-01
  7.20000000E-01  8.50000000E-01  8.50000000E-01  8.50000000E-01  7.20000000E-01
  7.20000000E-01  8.50000000E-01  7.20000000E-01  7.20000000E-01  8.50000000E-01
  7.20000000E-01  8.50000000E-01  8.50000000E-01  8.50000000E-01  7.20000000E-01
  7.20000000E-01  7.20000000E-01  7.20000000E-01  7.20000000E-01  8.50000000E-01
  7.20000000E-01  7.20000000E-01  7.20000000E-01  8.50000000E-01  7.20000000E-01
  7.20000000E-01  8.50000000E-01  8.50000000E-01  7.20000000E-01  7.20000000E-01
  7.20000000E-01  8.50000000E-01  7.20000000E-01  7.20000000E-01  7.20000000E-01
  8.50000000E-01  7.20000000E-01  8.50000000E-01  8.50000000E-01  8.50000000E-01
  7.20000000E-01  7.20000000E-01  8.50000000E-01  7.20000000E-01  7.20000000E-01
  8.50000000E-01  7.20000000E-01  8.50000000E-01  8.50000000E-01  8.50000000E-01
  7.20000000E-01  7.20000000E-01  7.20000000E-01  7.20000000E-01  7.20000000E-01
  8.50000000E-01  7.20000000E-01  7.20000000E-01  7.20000000E-01  8.50000000E-01
  7.20000000E-01  7.20000000E-01  8.50000000E-01  8.50000000E-01  7.20000000E-01
  7.20000000E-01  7.20000000E-01  8.50000000E-01  7.20000000E-01  7.20000000E-01
  7.20000000E-01  8.50000000E-01  7.20000000E-01  8.50000000E-01  8.50000000E-01
  8.50000000E-01  7.20000000E-01  7.20000000E-01  8.50000000E-01  7.20000000E-01
  7.20000000E-01  8.50000000E-01  7.20000000E-01  8.50000000E-01  8.50000000E-01
  8.50000000E-01  7.20000000E-01  7.20000000E-01  7.20000000E-01  7.20000000E-01
  7.20000000E-01  8.50000000E-01  7.20000000E-01  7.20000000E-01  7.20000000E-01
  8.50000000E-01  7.20000000E-01  7.20000000E-01  8.50000000E-01  8.50000000E-01
  7.20000000E-01  7.20000000E-01  7.20000000E-01  8.50000000E-01  7.20000000E-01
  7.20000000E-01  7.20000000E-01  8.50000000E-01  7.20000000E-01  8.50000000E-01
  8.50000000E-01  8.50000000E-01  7.20000000E-01  7.20000000E-01  8.50000000E-01
  7.20000000E-01  7.20000000E-01  8.50000000E-01  7.20000000E-01  8.50000000E-01
  8.50000000E-01  8.50000000E-01  7.20000000E-01  7.20000000E-01  7.20000000E-01
  7.20000000E-01  7.20000000E-01  8.50000000E-01  7.20000000E-01  7.20000000E-01
  7.20000000E-01  8.50000000E-01  7.20000000E-01  7.20000000E-01  8.50000000E-01
  8.50000000E-01  7.20000000E-01  7.20000000E-01  7.20000000E-01  8.50000000E-01
  7.20000000E-01  7.20000000E-01  7.20000000E-01  8.50000000E-01  7.20000000E-01
  8.50000000E-01  8.50000000E-01  8.50000000E-01  7.20000000E-01  7.20000000E-01
  8.50000000E-01  7.20000000E-01  7.20000000E-01  8.50000000E-01  7.20000000E-01
  8.50000000E-01  8.50000000E-01  8.50000000E-01  7.20000000E-01  7.20000000E-01
  7.20000000E-01  7.20000000E-01  7.20000000E-01  8.50000000E-01  7.20000000E-01
  7.20000000E-01  7.20000000E-01  8.50000000E-01  7.20000000E-01  7.20000000E-01
  8.50000000E-01  8.50000000E-01  7.20000000E-01  7.20000000E-01  7.20000000E-01
  8.50000000E-01  7.20000000E-01  7.20000000E-01  7.20000000E-01  8.50000000E-01
  7.20000000E-01  8.50000000E-01  8.50000000E-01  8.50000000E-01  7.20000000E-01
  7.20000000E-01  8.50000000E-01  7.20000000E-01  7.20000000E-01  8.50000000E-01
  7.20000000E-01  8.50000000E-01  8.50000000E-01  8.50000000E-01  7.20000000E-01
  7.20000000E-01  7.20000000E-01  7.20000000E-01  7.20000000E-01  8.50000000E-01
  7.20000000E-01  7.20000000E-01  7.20000000E-01  8.50000000E-01  7.20000000E-01
  7.20000000E-01  8.50000000E-01  8.50000000E-01  7.20000000E-01  7.20000000E-01
  7.20000000E-01  8.50000000E-01  7.20000000E-01  7.20000000E-01  7.20000000E-01
  8.50000000E-01  7.20000000E-01  8.50000000E-01  8.50000000E-01  8.50000000E-01
  7.20000000E-01  7.20000000E-01  8.50000000E-01  7.20000000E-01  7.20000000E-01
  8.50000000E-01  7.20000000E-01  8.50000000E-01  8.50000000E-01  8.50000000E-01
  7.20000000E-01  7.20000000E-01  7.20000000E-01  7.20000000E-01  7.20000000E-01
  8.50000000E-01  7.20000000E-01  7.20000000E-01  7.20000000E-01  8.50000000E-01
  7.20000000E-01  7.20000000E-01  8.50000000E-01  8.50000000E-01  7.20000000E-01
  7.20000000E-01  7.20000000E-01  8.50000000E-01  7.20000000E-01  7.20000000E-01
  7.20000000E-01  8.50000000E-01  7.20000000E-01  8.50000000E-01  8.50000000E-01
  8.50000000E-01  7.20000000E-01  7.20000000E-01  8.50000000E-01  7.20000000E-01
  7.20000000E-01  8.50000000E-01  7.20000000E-01  8.50000000E-01  8.50000000E-01
  8.50000000E-01  7.20000000E-01  7.20000000E-01  7.20000000E-01  7.20000000E-01
  7.20000000E-01  8.50000000E-01  7.20000000E-01  7.20000000E-01  7.20000000E-01
  8.50000000E-01  7.20000000E-01  7.20000000E-01  8.50000000E-01  8.50000000E-01
  7.20000000E-01  7.20000000E-01  7.20000000E-01  8.50000000E-01  7.20000000E-01
  7.20000000E-01  7.20000000E-01  8.50000000E-01  7.20000000E-01  8.50000000E-01
  8.50000000E-01  8.50000000E-01  7.20000000E-01  7.20000000E-01  8.50000000E-01
  7.20000000E-01  7.20000000E-01  8.50000000E-01  7.20000000E-01  8.50000000E-01
  8.50000000E-01  8.50000000E-01  7.20000000E-01  7.20000000E-01  7.20000000E-01
  7.20000000E-01  7.20000000E-01  8.50000000E-01  7.20000000E-01  7.20000000E-01
  7.20000000E-01  8.50000000E-01  7.20000000E-01  7.20000000E-01  8.50000000E-01
  8.50000000E-01  7.20000000E-01  7.20000000E-01  7.20000000E-01  8.50000000E-01
  7.20000000E-01  7.20000000E-01  7.20000000E-01  8.50000000E-01  7.20000000E-01
  8.50000000E-01  8.50000000E-01  8.50000000E-01  7.20000000E-01  7.20000000E-01
  8.50000000E-01  7.20000000E-01  7.20000000E-01  8.50000000E-01  7.20000000E-01
  8.50000000E-01  8.50000000E-01  8.50000000E-01  7.20000000E-01  7.20000000E-01
  7.20000000E-01  7.20000000E-01  7.20000000E-01  8.50000000E-01  7.20000000E-01
  7.20000000E-01  7.20000000E-01  8.50000000E-01  7.20000000E-01  7.20000000E-01
  8.50000000E-01  8.50000000E-01  7.20000000E-01  7.20000000E-01  7.20000000E-01
  8.50000000E-01  7.20000000E-01  7.20000000E-01  7.20000000E-01  8.50000000E-01
  7.20000000E-01  8.50000000E-01  8.50000000E-01  8.50000000E-01  7.20000000E-01
  7.20000000E-01  8.50000000E-01  7.20000000E-01  7.20000000E-01  8.50000000E-01
  7.20000000E-01  8.50000000E-01  8.50000000E-01  8.50000000E-01  7.20000000E-01
  7.20000000E-01  7.20000000E-01  7.20000000E-01  7.20000000E-01  8.50000000E-01
  7.20000000E-01  7.20000000E-01  7.20000000E-01  8.50000000E-01  7.20000000E-01
  7.20000000E-01  8.50000000E-01  8.50000000E-01  7.20000000E-01  7.20000000E-01
  7.20000000E-01  8.50000000E-01  7.20000000E-01  7.20000000E-01  7.20000000E-01
  8.50000000E-01  7.20000000E-01  8.50000000E-01  8.50000000E-01  8.50000000E-01
  7.20000000E-01  7.20000000E-01  8.50000000E-01  7.20000000E-01  7.20000000E-01
  8.50000000E-01  7.20000000E-01  8.50000000E-01  8.50000000E-01  8.50000000E-01
  7.20000000E-01  7.20000000E-01  7.20000000E-01  7.20000000E-01  7.20000000E-01
  8.50000000E-01  7.20000000E-01  7.20000000E-01  7.20000000E-01  8.50000000E-01
  7.20000000E-01  7.20000000E-01  8.50000000E-01  8.50000000E-01  7.20000000E-01
  7.20000000E-01  7.20000000E-01  8.50000000E-01  7.20000000E-01  7.20000000E-01
  7.20000000E-01  8.50000000E-01  7.20000000E-01  8.50000000E-01  8.50000000E-01
  8.50000000E-01  7.20000000E-01  7.20000000E-01  8.50000000E-01  7.20000000E-01
  7.20000000E-01  8.50000000E-01  7.20000000E-01  8.50000000E-01  8.50000000E-01
  8.50000000E-01  7.20000000E-01  7.20000000E-01  7.20000000E-01  7.20000000E-01
  7.20000000E-01  8.50000000E-01  7.20000000E-01  7.20000000E-01  7.20000000E-01
  8.50000000E-01  7.20000000E-01  7.20000000E-01  8.50000000E-01  8.50000000E-01
  7.20000000E-01  7.20000000E-01  7.20000000E-01  8.50000000E-01  7.20000000E-01
  7.20000000E-01  7.20000000E-01  8.50000000E-01  7.20000000E-01  8.50000000E-01
  8.50000000E-01  8.50000000E-01  7.20000000E-01  7.20000000E-01  8.50000000E-01
  7.20000000E-01  7.20000000E-01  8.50000000E-01  7.20000000E-01  8.50000000E-01
  8.50000000E-01  8.50000000E-01  7.20000000E-01  7.20000000E-01  7.20000000E-01
  7.20000000E-01  7.20000000E-01  8.50000000E-01  7.20000000E-01  7.20000000E-01
  7.20000000E-01  8.50000000E-01  7.20000000E-01  7.20000000E-01  8.50000000E-01
  8.50000000E-01  7.20000000E-01  7.20000000E-01  7.20000000E-01  8.50000000E-01
  7.20000000E-01  7.20000000E-01  7.20000000E-01  8.50000000E-01  7.20000000E-01
  8.50000000E-01  8.50000000E-01  8.50000000E-01  7.20000000E-01  7.20000000E-01
  8.50000000E-01  7.20000000E-01  7.20000000E-01  8.50000000E-01  7.20000000E-01
  8.50000000E-01  8.50000000E-01  8.50000000E-01  7.20000000E-01  7.20000000E-01
  7.20000000E-01  7.20000000E-01  7.20000000E-01  8.50000000E-01  7.20000000E-01
  7.20000000E-01  7.20000000E-01  8.50000000E-01  7.20000000E-01  7.20000000E-01
  8.50000000E-01  8.50000000E-01  7.20000000E-01  7.20000000E-01  7.20000000E-01
  8.50000000E-01  7.20000000E-01  7.20000000E-01  7.20000000E-01  8.50000000E-01
  7.20000000E-01  8.50000000E-01  8.50000000E-01  8.50000000E-01  7.20000000E-01
  7.20000000E-01  8.50000000E-01  7.20000000E-01  7.20000000E-01  8.50000000E-01
  7.20000000E-01  8.50000000E-01  8.50000000E-01  8.50000000E-01  7.20000000E-01
  7.20000000E-01  7.20000000E-01  7.20000000E-01  7.20000000E-01  8.50000000E-01
  7.20000000E-01  7.20000000E-01  7.20000000E-01  8.50000000E-01  7.20000000E-01
  7.20000000E-01  8.50000000E-01  8.50000000E-01  7.20000000E-01  7.20000000E-01
  7.20000000E-01  8.50000000E-01  7.20000000E-01  7.20000000E-01  7.20000000E-01
  8.50000000E-01  7.20000000E-01  8.50000000E-01  8.50000000E-01  8.50000000E-01
  7.20000000E-01  7.20000000E-01  8.50000000E-01  7.20000000E-01  7.20000000E-01
  8.50000000E-01  7.20000000E-01  8.50000000E-01  8.50000000E-01  8.50000000E-01
  7.20000000E-01  7.20000000E-01  7.20000000E-01  7.20000000E-01  7.20000000E-01
  8.50000000E-01  7.20000000E-01  7.20000000E-01  7.20000000E-01  8.50000000E-01
  7.20000000E-01  7.20000000E-01  8.50000000E-01  8.50000000E-01  7.20000000E-01
  7.20000000E-01  7.20000000E-01  8.50000000E-01  7.20000000E-01  7.20000000E-01
  7.20000000E-01  8.50000000E-01  7.20000000E-01  8.50000000E-01  8.50000000E-01
  8.50000000E-01  7.20000000E-01  7.20000000E-01  8.50000000E-01  7.20000000E-01
  7.20000000E-01  8.50000000E-01  7.20000000E-01  8.50000000E-01  8.50000000E-01
  8.50000000E-01  7.20000000E-01  7.20000000E-01  7.20000000E-01  7.20000000E-01
  7.20000000E-01  8.50000000E-01  7.20000000E-01  7.20000000E-01  7.20000000E-01
  8.50000000E-01  7.20000000E-01  7.20000000E-01  8.50000000E-01  8.50000000E-01
  7.20000000E-01  7.20000000E-01  7.20000000E-01  8.50000000E-01  7.20000000E-01
  7.20000000E-01  7.20000000E-01  8.50000000E-01  7.20000000E-01  8.50000000E-01
  8.50000000E-01  8.50000000E-01  7.20000000E-01  7.20000000E-01  8.50000000E-01
  7.20000000E-01  7.20000000E-01  8.50000000E-01  7.20000000E-01  8.50000000E-01
  8.50000000E-01  8.50000000E-01  7.20000000E-01  7.20000000E-01  7.20000000E-01
  7.20000000E-01  7.20000000E-01  8.50000000E-01  7.20000000E-01  7.20000000E-01
  7.20000000E-01  8.50000000E-01  7.20000000E-01  7.20000000E-01  8.50000000E-01
  8.50000000E-01  7.20000000E-01  7.20000000E-01  7.20000000E-01  8.50000000E-01
  7.20000000E-01  7.20000000E-01  7.20000000E-01  8.50000000E-01  7.20000000E-01
  8.50000000E-01  8.50000000E-01  8.50000000E-01  7.20000000E-01  7.20000000E-01
  8.50000000E-01  7.20000000E-01  7.20000000E-01  8.50000000E-01  7.20000000E-01
  8.50000000E-01  8.50000000E-01  8.50000000E-01  7.20000000E-01  7.20000000E-01
  7.20000000E-01  7.20000000E-01  7.20000000E-01  8.50000000E-01  7.20000000E-01
  7.20000000E-01  7.20000000E-01  8.50000000E-01  7.20000000E-01  7.20000000E-01
  8.50000000E-01  8.50000000E-01  7.20000000E-01  7.20000000E-01  7.20000000E-01
  8.50000000E-01  7.20000000E-01  7.20000000E-01  7.20000000E-01  8.50000000E-01
  7.20000000E-01  8.50000000E-01  8.50000000E-01  8.50000000E-01  7.20000000E-01
  7.20000000E-01  8.50000000E-01  7.20000000E-01  7.20000000E-01  8.50000000E-01
  7.20000000E-01  8.50000000E-01  8.50000000E-01  8.50000000E-01  7.20000000E-01
  7.20000000E-01  7.20000000E-01  7.20000000E-01  7.20000000E-01  8.50000000E-01
  7.20000000E-01  7.20000000E-01  7.20000000E-01  8.50000000E-01  7.20000000E-01
  7.20000000E-01  8.50000000E-01  8.50000000E-01  7.20000000E-01  7.20000000E-01
  7.20000000E-01  8.50000000E-01  7.20000000E-01  7.20000000E-01  7.20000000E-01
  8.50000000E-01  7.20000000E-01  8.50000000E-01  8.50000000E-01  8.50000000E-01
  7.20000000E-01  7.20000000E-01  8.50000000E-01  7.20000000E-01  7.20000000E-01
  8.50000000E-01  7.20000000E-01  8.50000000E-01  8.50000000E-01  8.50000000E-01
  7.20000000E-01  7.20000000E-01  7.20000000E-01  7.20000000E-01  7.20000000E-01
  8.50000000E-01  7.20000000E-01  7.20000000E-01  7.20000000E-01  8.50000000E-01
  7.20000000E-01  7.20000000E-01  8.50000000E-01  8.50000000E-01  7.20000000E-01
  7.20000000E-01  7.20000000E-01  8.50000000E-01  7.20000000E-01  7.20000000E-01
  7.20000000E-01  8.50000000E-01  7.20000000E-01  8.50000000E-01  8.50000000E-01
  8.50000000E-01  7.20000000E-01  7.20000000E-01  8.50000000E-01  7.20000000E-01
  7.20000000E-01  8.50000000E-01  7.20000000E-01  8.50000000E-01  8.50000000E-01
  8.50000000E-01  7.20000000E-01  7.20000000E-01  7.20000000E-01  7.20000000E-01
  7.20000000E-01  8.50000000E-01  7.20000000E-01  7.20000000E-01  7.20000000E-01
  8.50000000E-01  7.20000000E-01  7.20000000E-01  8.50000000E-01  8.50000000E-01
  7.20000000E-01  7.20000000E-01  7.20000000E-01  8.50000000E-01  7.20000000E-01
  7.20000000E-01  7.20000000E-01  8.50000000E-01  7.20000000E-01  8.50000000E-01
  8.50000000E-01  8.50000000E-01  7.20000000E-01  7.20000000E-01  8.50000000E-01
  7.20000000E-01  7.20000000E-01  8.50000000E-01  7.20000000E-01  8.50000000E-01
  8.50000000E-01  8.50000000E-01  7.20000000E-01  7.20000000E-01  7.20000000E-01
  7.20000000E-01  7.20000000E-01  8.50000000E-01  7.20000000E-01  7.20000000E-01
  7.20000000E-01  8.50000000E-01  7.20000000E-01  7.20000000E-01  8.50000000E-01
  8.50000000E-01  7.20000000E-01  7.20000000E-01  7.20000000E-01  8.50000000E-01
  7.20000000E-01  7.20000000E-01  7.20000000E-01  8.50000000E-01  7.20000000E-01
  8.50000000E-01  8.50000000E-01  8.50000000E-01  7.20000000E-01  7.20000000E-01
  8.50000000E-01  7.20000000E-01  7.20000000E-01  8.50000000E-01  7.20000000E-01
  8.50000000E-01  8.50000000E-01  8.50000000E-01  7.20000000E-01  7.20000000E-01
  7.20000000E-01  7.20000000E-01  7.20000000E-01  8.50000000E-01  7.20000000E-01
  7.20000000E-01  7.20000000E-01  8.50000000E-01  7.20000000E-01  7.20000000E-01
  8.50000000E-01  8.50000000E-01  7.20000000E-01  7.20000000E-01  7.20000000E-01
  8.50000000E-01  7.20000000E-01  7.20000000E-01  7.20000000E-01  8.50000000E-01
  7.20000000E-01  8.50000000E-01  8.50000000E-01  8.50000000E-01  7.20000000E-01
  7.20000000E-01  8.50000000E-01  7.20000000E-01  7.20000000E-01  8.50000000E-01
  7.20000000E-01  8.50000000E-01  8.50000000E-01  8.50000000E-01  7.20000000E-01
  7.20000000E-01  7.20000000E-01  7.20000000E-01  7.20000000E-01  8.50000000E-01
  7.20000000E-01  7.20000000E-01  7.20000000E-01  8.50000000E-01  7.20000000E-01
  7.20000000E-01  8.50000000E-01  8.50000000E-01  7.20000000E-01  7.20000000E-01
  7.20000000E-01  8.50000000E-01  7.20000000E-01  7.20000000E-01  7.20000000E-01
  8.50000000E-01  7.20000000E-01  8.50000000E-01  8.50000000E-01  8.50000000E-01
  7.20000000E-01  7.20000000E-01  8.50000000E-01  7.20000000E-01  7.20000000E-01
  8.50000000E-01  7.20000000E-01  8.50000000E-01  8.50000000E-01  8.50000000E-01
  7.20000000E-01  7.20000000E-01  7.20000000E-01  7.20000000E-01  7.20000000E-01
  8.50000000E-01  7.20000000E-01  7.20000000E-01  7.20000000E-01  8.50000000E-01
  7.20000000E-01  7.20000000E-01  8.50000000E-01  8.50000000E-01  7.20000000E-01
  7.20000000E-01  7.20000000E-01  8.50000000E-01  7.20000000E-01  7.20000000E-01
  7.20000000E-01  8.50000000E-01  7.20000000E-01  8.50000000E-01  8.50000000E-01
  8.50000000E-01  7.20000000E-01  7.20000000E-01  8.50000000E-01  7.20000000E-01
  7.20000000E-01  8.50000000E-01  7.20000000E-01  8.50000000E-01  8.50000000E-01
  8.50000000E-01  7.20000000E-01  7.20000000E-01  7.20000000E-01  7.20000000E-01
  7.20000000E-01  8.50000000E-01  7.20000000E-01  7.20000000E-01  7.20000000E-01
  8.50000000E-01  7.20000000E-01  7.20000000E-01  8.50000000E-01  8.50000000E-01
  7.20000000E-01  7.20000000E-01  7.20000000E-01  8.50000000E-01  7.20000000E-01
  7.20000000E-01  7.20000000E-01  8.50000000E-01  7.20000000E-01  8.50000000E-01
  8.50000000E-01  8.50000000E-01  7.20000000E-01  7.20000000E-01  8.50000000E-01
  7.20000000E-01  7.20000000E-01  8.50000000E-01  7.20000000E-01  8.50000000E-01
  8.50000000E-01  8.50000000E-01  7.20000000E-01  7.20000000E-01  7.20000000E-01
  7.20000000E-01  7.20000000E-01  8.50000000E-01  7.20000000E-01  7.20000000E-01
  7.20000000E-01  8.50000000E-01  7.20000000E-01  7.20000000E-01  8.50000000E-01
  8.50000000E-01  7.20000000E-01  7.20000000E-01  7.20000000E-01  8.50000000E-01
  7.20000000E-01  7.20000000E-01  7.20000000E-01  8.50000000E-01  7.20000000E-01
  8.50000000E-01  8.50000000E-01  8.50000000E-01  7.20000000E-01  7.20000000E-01
  8.50000000E-01  7.20000000E-01  7.20000000E-01  8.50000000E-01  7.20000000E-01
  8.50000000E-01  8.50000000E-01  8.50000000E-01  7.20000000E-01  7.20000000E-01
  7.20000000E-01  7.20000000E-01  7.20000000E-01  8.50000000E-01  7.20000000E-01
  7.20000000E-01  7.20000000E-01  8.50000000E-01  7.20000000E-01  7.20000000E-01
  8.50000000E-01  8.50000000E-01  7.20000000E-01  7.20000000E-01  7.20000000E-01
  8.50000000E-01  7.20000000E-01  7.20000000E-01  7.20000000E-01  8.50000000E-01
  7.20000000E-01  8.50000000E-01  8.50000000E-01  8.50000000E-01  7.20000000E-01
  7.20000000E-01  8.50000000E-01  7.20000000E-01  7.20000000E-01  8.50000000E-01
  7.20000000E-01  8.50000000E-01  8.50000000E-01  8.50000000E-01  7.20000000E-01
  7.20000000E-01  7.20000000E-01  7.20000000E-01  7.20000000E-01  8.50000000E-01
  7.20000000E-01  7.20000000E-01  7.20000000E-01  8.50000000E-01  7.20000000E-01
  7.20000000E-01  8.50000000E-01  8.50000000E-01  7.20000000E-01  7.20000000E-01
  7.20000000E-01  8.50000000E-01  7.20000000E-01  7.20000000E-01  7.20000000E-01
  8.50000000E-01  7.20000000E-01  8.50000000E-01  8.50000000E-01  8.50000000E-01
  7.20000000E-01  7.20000000E-01  8.50000000E-01  7.20000000E-01  7.20000000E-01
  8.50000000E-01  7.20000000E-01  8.50000000E-01  8.50000000E-01  8.50000000E-01
  7.20000000E-01  7.20000000E-01  7.20000000E-01  7.20000000E-01  7.20000000E-01
  8.50000000E-01  7.20000000E-01  7.20000000E-01  7.20000000E-01  8.50000000E-01
  7.20000000E-01  7.20000000E-01  8.50000000E-01  8.50000000E-01  7.20000000E-01
  7.20000000E-01  7.20000000E-01  8.50000000E-01  7.20000000E-01  7.20000000E-01
  7.20000000E-01  8.50000000E-01  7.20000000E-01  8.50000000E-01  8.50000000E-01
  8.50000000E-01  7.20000000E-01  7.20000000E-01  8.50000000E-01  7.20000000E-01
  7.20000000E-01  8.50000000E-01  7.20000000E-01  8.50000000E-01  8.50000000E-01
  8.50000000E-01  7.20000000E-01  7.20000000E-01  7.20000000E-01  7.20000000E-01
  7.20000000E-01  8.50000000E-01  7.20000000E-01  7.20000000E-01  7.20000000E-01
  8.50000000E-01  7.20000000E-01  7.20000000E-01  8.50000000E-01  8.50000000E-01
  7.20000000E-01  7.20000000E-01  7.20000000E-01  8.50000000E-01  7.20000000E-01
  7.20000000E-01  7.20000000E-01  8.50000000E-01  7.20000000E-01  8.50000000E-01
  8.50000000E-01  8.50000000E-01  7.20000000E-01  7.20000000E-01  8.50000000E-01
  7.20000000E-01  7.20000000E-01  8.50000000E-01  7.20000000E-01  8.50000000E-01
  8.50000000E-01  8.50000000E-01  7.20000000E-01  7.20000000E-01  7.20000000E-01
  7.20000000E-01  7.20000000E-01  8.50000000E-01  7.20000000E-01  7.20000000E-01
  7.20000000E-01  8.50000000E-01  7.20000000E-01  7.20000000E-01  8.50000000E-01
  8.50000000E-01  7.20000000E-01  7.20000000E-01  7.20000000E-01  8.50000000E-01
  7.20000000E-01  7.20000000E-01  7.20000000E-01  8.50000000E-01  7.20000000E-01
  8.50000000E-01  8.50000000E-01  8.50000000E-01  7.20000000E-01  7.20000000E-01
  8.50000000E-01  7.20000000E-01  7.20000000E-01  8.50000000E-01  7.20000000E-01
  8.50000000E-01  8.50000000E-01  8.50000000E-01  7.20000000E-01  7.20000000E-01
  7.20000000E-01  7.20000000E-01  7.20000000E-01  8.50000000E-01  7.20000000E-01
  7.20000000E-01  7.20000000E-01  8.50000000E-01  7.20000000E-01  7.20000000E-01
  8.50000000E-01  8.50000000E-01  7.20000000E-01  7.20000000E-01  7.20000000E-01
  8.50000000E-01  7.20000000E-01  7.20000000E-01  7.20000000E-01  8.50000000E-01
  7.20000000E-01  8.50000000E-01  8.50000000E-01  8.50000000E-01  7.20000000E-01
  7.20000000E-01  8.50000000E-01  7.20000000E-01  7.20000000E-01  8.50000000E-01
  7.20000000E-01  8.50000000E-01  8.50000000E-01  8.50000000E-01  7.20000000E-01
  7.20000000E-01  7.20000000E-01  7.20000000E-01  7.20000000E-01  8.50000000E-01
  7.20000000E-01  7.20000000E-01  7.20000000E-01  8.50000000E-01  7.20000000E-01
  7.20000000E-01  8.50000000E-01  8.50000000E-01  7.20000000E-01  7.20000000E-01
  7.20000000E-01  8.50000000E-01  7.20000000E-01  7.20000000E-01  7.20000000E-01
  8.50000000E-01  7.20000000E-01  8.50000000E-01  8.50000000E-01  8.50000000E-01
  7.20000000E-01  7.20000000E-01  8.50000000E-01  7.20000000E-01  7.20000000E-01
  8.50000000E-01  7.20000000E-01  8.50000000E-01  8.50000000E-01  8.50000000E-01
  7.20000000E-01  7.20000000E-01  7.20000000E-01  7.20000000E-01  7.20000000E-01
  8.50000000E-01  7.20000000E-01  7.20000000E-01  7.20000000E-01  8.50000000E-01
  7.20000000E-01  7.20000000E-01  8.50000000E-01  8.50000000E-01  7.20000000E-01
  7.20000000E-01  7.20000000E-01  8.50000000E-01  7.20000000E-01  7.20000000E-01
  7.20000000E-01  8.50000000E-01  7.20000000E-01  8.50000000E-01  8.50000000E-01
  8.50000000E-01  7.20000000E-01  7.20000000E-01  8.50000000E-01  7.20000000E-01
  7.20000000E-01  8.50000000E-01  7.20000000E-01  8.50000000E-01  8.50000000E-01
  8.50000000E-01  7.20000000E-01  7.20000000E-01  7.20000000E-01  7.20000000E-01
  7.20000000E-01  8.50000000E-01  7.20000000E-01  7.20000000E-01  7.20000000E-01
  8.50000000E-01  7.20000000E-01  7.20000000E-01  8.50000000E-01  8.50000000E-01
  7.20000000E-01  7.20000000E-01  7.20000000E-01  8.50000000E-01  7.20000000E-01
  7.20000000E-01  7.20000000E-01  8.50000000E-01  7.20000000E-01  8.50000000E-01
  8.50000000E-01  8.50000000E-01  7.20000000E-01  7.20000000E-01  8.50000000E-01
  7.20000000E-01  7.20000000E-01  8.50000000E-01  7.20000000E-01  8.50000000E-01
  8.50000000E-01  8.50000000E-01  7.20000000E-01  7.20000000E-01  7.20000000E-01
  7.20000000E-01  7.20000000E-01  8.50000000E-01  7.20000000E-01  7.20000000E-01
  7.20000000E-01  8.50000000E-01  7.20000000E-01  7.20000000E-01  8.50000000E-01
  8.50000000E-01  7.20000000E-01  7.20000000E-01  7.20000000E-01  8.50000000E-01
  7.20000000E-01  7.20000000E-01  7.20000000E-01  8.50000000E-01  7.20000000E-01
  8.50000000E-01  8.50000000E-01  8.50000000E-01  7.20000000E-01  7.20000000E-01
  8.50000000E-01  7.20000000E-01  7.20000000E-01  8.50000000E-01  7.20000000E-01
  8.50000000E-01  8.50000000E-01  8.50000000E-01  7.20000000E-01  7.20000000E-01
  7.20000000E-01  7.20000000E-01  7.20000000E-01  8.50000000E-01  7.20000000E-01
  7.20000000E-01  7.20000000E-01  8.50000000E-01  7.20000000E-01  7.20000000E-01
  8.50000000E-01  8.50000000E-01  7.20000000E-01  7.20000000E-01  7.20000000E-01
  8.50000000E-01  7.20000000E-01  7.20000000E-01  7.20000000E-01  8.50000000E-01
  7.20000000E-01  8.50000000E-01  8.50000000E-01  8.50000000E-01  7.20000000E-01
  7.20000000E-01  8.50000000E-01  7.20000000E-01  7.20000000E-01  8.50000000E-01
  7.20000000E-01  8.50000000E-01  8.50000000E-01  8.50000000E-01  7.20000000E-01
  7.20000000E-01  7.20000000E-01  7.20000000E-01  7.20000000E-01  8.50000000E-01
  7.20000000E-01  7.20000000E-01  7.20000000E-01  8.50000000E-01  7.20000000E-01
  7.20000000E-01  8.50000000E-01  8.50000000E-01  7.20000000E-01  7.20000000E-01
  7.20000000E-01  8.50000000E-01  7.20000000E-01  7.20000000E-01  7.20000000E-01
  8.50000000E-01  7.20000000E-01  8.50000000E-01  8.50000000E-01  8.50000000E-01
  7.20000000E-01  7.20000000E-01  8.50000000E-01  7.20000000E-01  7.20000000E-01
  8.50000000E-01  7.20000000E-01  8.50000000E-01  8.50000000E-01  8.50000000E-01
  7.20000000E-01  7.20000000E-01  7.20000000E-01  7.20000000E-01  7.20000000E-01
  8.50000000E-01  7.20000000E-01  7.20000000E-01  7.20000000E-01  8.50000000E-01
  7.20000000E-01  7.20000000E-01  8.50000000E-01  8.50000000E-01  7.20000000E-01
  7.20000000E-01  7.20000000E-01  8.50000000E-01  7.20000000E-01  7.20000000E-01
  7.20000000E-01  8.50000000E-01  7.20000000E-01  8.50000000E-01  8.50000000E-01
  8.50000000E-01  7.20000000E-01  7.20000000E-01  8.50000000E-01  7.20000000E-01
  7.20000000E-01  8.50000000E-01  7.20000000E-01  8.50000000E-01  8.50000000E-01
  8.50000000E-01  7.20000000E-01  7.20000000E-01  7.20000000E-01  7.20000000E-01
  7.20000000E-01  8.50000000E-01  7.20000000E-01  7.20000000E-01  7.20000000E-01
  8.50000000E-01  7.20000000E-01  7.20000000E-01  8.50000000E-01  8.50000000E-01
  7.20000000E-01  7.20000000E-01  7.20000000E-01  8.50000000E-01  7.20000000E-01
  7.20000000E-01  7.20000000E-01  8.50000000E-01  7.20000000E-01  8.50000000E-01
  8.50000000E-01  8.50000000E-01  7.20000000E-01  7.20000000E-01  8.50000000E-01
  7.20000000E-01  7.20000000E-01  8.50000000E-01  7.20000000E-01  8.50000000E-01
  8.50000000E-01  8.50000000E-01  7.20000000E-01  7.20000000E-01  7.20000000E-01
  7.20000000E-01  7.20000000E-01  8.50000000E-01  7.20000000E-01  7.20000000E-01
  7.20000000E-01  8.50000000E-01  7.20000000E-01  7.20000000E-01  8.50000000E-01
  8.50000000E-01  7.20000000E-01  7.20000000E-01  7.20000000E-01  8.50000000E-01
  7.20000000E-01  7.20000000E-01  7.20000000E-01  8.50000000E-01  7.20000000E-01
  8.50000000E-01  8.50000000E-01  8.50000000E-01  7.20000000E-01  7.20000000E-01
  8.50000000E-01  7.20000000E-01  7.20000000E-01  8.50000000E-01  7.20000000E-01
  8.50000000E-01  8.50000000E-01  8.50000000E-01  7.20000000E-01  7.20000000E-01
  7.20000000E-01  7.20000000E-01  7.20000000E-01  8.50000000E-01  7.20000000E-01
  7.20000000E-01  7.20000000E-01  8.50000000E-01  7.20000000E-01  7.20000000E-01
  8.50000000E-01  8.50000000E-01  7.20000000E-01  7.20000000E-01  7.20000000E-01
  8.50000000E-01  7.20000000E-01  7.20000000E-01  7.20000000E-01  8.50000000E-01
  7.20000000E-01  8.50000000E-01  8.50000000E-01  8.50000000E-01  7.20000000E-01
  7.20000000E-01  8.50000000E-01  7.20000000E-01  7.20000000E-01  8.50000000E-01
  7.20000000E-01  8.50000000E-01  8.50000000E-01  8.50000000E-01  7.20000000E-01
  7.20000000E-01  7.20000000E-01  7.20000000E-01  7.20000000E-01  8.50000000E-01
  7.20000000E-01  7.20000000E-01  7.20000000E-01  8.50000000E-01  7.20000000E-01
  7.20000000E-01  8.50000000E-01  8.50000000E-01  7.20000000E-01  7.20000000E-01
  7.20000000E-01  8.50000000E-01  7.20000000E-01  7.20000000E-01  7.20000000E-01
  8.50000000E-01  7.20000000E-01  8.50000000E-01  8.50000000E-01  8.50000000E-01
  7.20000000E-01  7.20000000E-01  8.50000000E-01  7.20000000E-01  7.20000000E-01
  8.50000000E-01  7.20000000E-01  8.50000000E-01  8.50000000E-01  8.50000000E-01
  7.20000000E-01  7.20000000E-01  7.20000000E-01  7.20000000E-01  7.20000000E-01
  8.50000000E-01  7.20000000E-01  7.20000000E-01  7.20000000E-01  8.50000000E-01
  7.20000000E-01  7.20000000E-01  8.50000000E-01  8.50000000E-01  7.20000000E-01
  7.20000000E-01  7.20000000E-01  8.50000000E-01  7.20000000E-01  7.20000000E-01
  7.20000000E-01  8.50000000E-01  7.20000000E-01  8.50000000E-01  8.50000000E-01
  8.50000000E-01  7.20000000E-01  7.20000000E-01  8.50000000E-01  7.20000000E-01
  7.20000000E-01  8.50000000E-01  7.20000000E-01  8.50000000E-01  8.50000000E-01
  8.50000000E-01  7.20000000E-01  7.20000000E-01  7.20000000E-01  7.20000000E-01
  7.20000000E-01  8.50000000E-01  7.20000000E-01  7.20000000E-01  7.20000000E-01
  8.50000000E-01  7.20000000E-01  7.20000000E-01  8.50000000E-01  8.50000000E-01
  7.20000000E-01  7.20000000E-01  7.20000000E-01  8.50000000E-01  7.20000000E-01
  7.20000000E-01  7.20000000E-01  8.50000000E-01  7.20000000E-01  8.50000000E-01
  8.50000000E-01  8.50000000E-01  7.20000000E-01  7.20000000E-01  8.50000000E-01
  7.20000000E-01  7.20000000E-01  8.50000000E-01  7.20000000E-01  8.50000000E-01
  8.50000000E-01  8.50000000E-01  7.20000000E-01  7.20000000E-01  7.20000000E-01
  7.20000000E-01  7.20000000E-01  8.50000000E-01  7.20000000E-01  7.20000000E-01
  7.20000000E-01  8.50000000E-01  7.20000000E-01  7.20000000E-01  8.50000000E-01
  8.50000000E-01  7.20000000E-01  7.20000000E-01  7.20000000E-01  8.50000000E-01
  7.20000000E-01  7.20000000E-01  7.20000000E-01  8.50000000E-01  7.20000000E-01
  8.50000000E-01  8.50000000E-01  8.50000000E-01  7.20000000E-01  7.20000000E-01
  8.50000000E-01  7.20000000E-01  7.20000000E-01  8.50000000E-01  7.20000000E-01
  8.50000000E-01  8.50000000E-01  8.50000000E-01  7.20000000E-01  7.20000000E-01
  7.20000000E-01  7.20000000E-01  7.20000000E-01  8.50000000E-01  7.20000000E-01
  7.20000000E-01  7.20000000E-01  8.50000000E-01  7.20000000E-01  7.20000000E-01
  8.50000000E-01  8.50000000E-01  7.20000000E-01  7.20000000E-01  7.20000000E-01
  8.50000000E-01  7.20000000E-01  7.20000000E-01  7.20000000E-01  8.50000000E-01
  7.20000000E-01  8.50000000E-01  8.50000000E-01  8.50000000E-01  7.20000000E-01
  7.20000000E-01  8.50000000E-01  7.20000000E-01  7.20000000E-01  8.50000000E-01
  7.20000000E-01  8.50000000E-01  8.50000000E-01  8.50000000E-01  7.20000000E-01
  7.20000000E-01  7.20000000E-01  7.20000000E-01  7.20000000E-01  8.50000000E-01
  7.20000000E-01  7.20000000E-01  7.20000000E-01  8.50000000E-01  7.20000000E-01
  7.20000000E-01  8.50000000E-01  8.50000000E-01  7.20000000E-01  7.20000000E-01
  7.20000000E-01  8.50000000E-01  7.20000000E-01  7.20000000E-01  7.20000000E-01
  8.50000000E-01  7.20000000E-01  8.50000000E-01  8.50000000E-01  8.50000000E-01
  7.20000000E-01  7.20000000E-01  8.50000000E-01  7.20000000E-01  7.20000000E-01
  8.50000000E-01  7.20000000E-01  8.50000000E-01  8.50000000E-01  8.50000000E-01
  7.20000000E-01  7.20000000E-01  7.20000000E-01  7.20000000E-01  7.20000000E-01
  8.50000000E-01  7.20000000E-01  7.20000000E-01  7.20000000E-01  8.50000000E-01
  7.20000000E-01  7.20000000E-01  8.50000000E-01  8.50000000E-01  7.20000000E-01
  7.20000000E-01  7.20000000E-01  8.50000000E-01  7.20000000E-01  7.20000000E-01
  7.20000000E-01  8.50000000E-01  7.20000000E-01  8.50000000E-01  8.50000000E-01
  8.50000000E-01  7.20000000E-01  7.20000000E-01  8.50000000E-01  7.20000000E-01
  7.20000000E-01  8.50000000E-01  7.20000000E-01  8.50000000E-01  8.50000000E-01
  8.50000000E-01  7.20000000E-01  7.20000000E-01  7.20000000E-01  7.20000000E-01
  7.20000000E-01  8.50000000E-01  7.20000000E-01  7.20000000E-01  7.20000000E-01
  8.50000000E-01  7.20000000E-01  7.20000000E-01  8.50000000E-01  8.50000000E-01
  7.20000000E-01  7.20000000E-01  7.20000000E-01  8.50000000E-01  7.20000000E-01
  7.20000000E-01  7.20000000E-01  8.50000000E-01  7.20000000E-01  8.50000000E-01
  8.50000000E-01  8.50000000E-01  7.20000000E-01  7.20000000E-01  8.50000000E-01
  7.20000000E-01  7.20000000E-01  8.50000000E-01  7.20000000E-01  8.50000000E-01
  8.50000000E-01  8.50000000E-01  7.20000000E-01  7.20000000E-01  7.20000000E-01
  7.20000000E-01  7.20000000E-01  8.50000000E-01  7.20000000E-01  7.20000000E-01
  7.20000000E-01  8.50000000E-01  7.20000000E-01  7.20000000E-01  8.50000000E-01
  8.50000000E-01  7.20000000E-01  7.20000000E-01  7.20000000E-01  8.50000000E-01
  7.20000000E-01  7.20000000E-01  7.20000000E-01  8.50000000E-01  7.20000000E-01
  8.50000000E-01  8.50000000E-01  8.50000000E-01  7.20000000E-01  7.20000000E-01
  8.50000000E-01  7.20000000E-01  7.20000000E-01  8.50000000E-01  7.20000000E-01
  8.50000000E-01  8.50000000E-01  8.50000000E-01  7.20000000E-01  7.20000000E-01
  7.20000000E-01  7.20000000E-01  7.20000000E-01  8.50000000E-01  7.20000000E-01
  7.20000000E-01  7.20000000E-01  8.50000000E-01  7.20000000E-01  7.20000000E-01
  8.50000000E-01  8.50000000E-01  7.20000000E-01  7.20000000E-01  7.20000000E-01
  8.50000000E-01  7.20000000E-01  7.20000000E-01  7.20000000E-01  8.50000000E-01
  7.20000000E-01  8.50000000E-01  8.50000000E-01  8.50000000E-01  7.20000000E-01
  7.20000000E-01  8.50000000E-01  7.20000000E-01  7.20000000E-01  8.50000000E-01
  7.20000000E-01  8.50000000E-01  8.50000000E-01  8.50000000E-01  7.20000000E-01
  7.20000000E-01  7.20000000E-01  7.20000000E-01  7.20000000E-01  8.50000000E-01
  7.20000000E-01  7.20000000E-01  7.20000000E-01  8.50000000E-01  7.20000000E-01
  7.20000000E-01  8.50000000E-01  8.50000000E-01  7.20000000E-01  7.20000000E-01
  7.20000000E-01  8.50000000E-01  7.20000000E-01  7.20000000E-01  7.20000000E-01
  8.50000000E-01  7.20000000E-01  8.50000000E-01  8.50000000E-01  8.50000000E-01
  7.20000000E-01  7.20000000E-01  8.50000000E-01  7.20000000E-01  7.20000000E-01
  8.50000000E-01  7.20000000E-01  8.50000000E-01  8.50000000E-01  8.50000000E-01
  7.20000000E-01  7.20000000E-01  7.20000000E-01  7.20000000E-01  7.20000000E-01
  8.50000000E-01  7.20000000E-01  7.20000000E-01  7.20000000E-01  8.50000000E-01
  7.20000000E-01  7.20000000E-01  8.50000000E-01  8.50000000E-01  7.20000000E-01
  7.20000000E-01  7.20000000E-01  8.50000000E-01  7.20000000E-01  7.20000000E-01
  7.20000000E-01  8.50000000E-01  7.20000000E-01  8.50000000E-01  8.50000000E-01
  8.50000000E-01  7.20000000E-01  7.20000000E-01  8.50000000E-01  7.20000000E-01
  7.20000000E-01  8.50000000E-01  7.20000000E-01  8.50000000E-01  8.50000000E-01
  8.50000000E-01  7.20000000E-01  7.20000000E-01  7.20000000E-01  7.20000000E-01
  7.20000000E-01  8.50000000E-01  7.20000000E-01  7.20000000E-01  7.20000000E-01
  8.50000000E-01  7.20000000E-01  7.20000000E-01  8.50000000E-01  8.50000000E-01
  7.20000000E-01  7.20000000E-01  7.20000000E-01  8.50000000E-01  7.20000000E-01
  7.20000000E-01  7.20000000E-01  8.50000000E-01  7.20000000E-01  8.50000000E-01
  8.50000000E-01  8.50000000E-01  7.20000000E-01  7.20000000E-01  8.50000000E-01
  7.20000000E-01  7.20000000E-01  8.50000000E-01  7.20000000E-01  8.50000000E-01
  8.50000000E-01  8.50000000E-01  7.20000000E-01  7.20000000E-01  7.20000000E-01
  7.20000000E-01  7.20000000E-01  8.50000000E-01  7.20000000E-01  7.20000000E-01
  7.20000000E-01  8.50000000E-01  7.20000000E-01  7.20000000E-01  8.50000000E-01
  8.50000000E-01  7.20000000E-01  7.20000000E-01  7.20000000E-01  8.50000000E-01
  7.20000000E-01  7.20000000E-01  7.20000000E-01  8.50000000E-01  7.20000000E-01
  8.50000000E-01  8.50000000E-01  8.50000000E-01  7.20000000E-01  7.20000000E-01
  8.50000000E-01  7.20000000E-01  7.20000000E-01  8.50000000E-01  7.20000000E-01
  8.50000000E-01  8.50000000E-01  8.50000000E-01  7.20000000E-01  7.20000000E-01
  7.20000000E-01  7.20000000E-01  7.20000000E-01  8.50000000E-01  7.20000000E-01
  7.20000000E-01  7.20000000E-01  8.50000000E-01  7.20000000E-01  7.20000000E-01
  8.50000000E-01  8.50000000E-01  7.20000000E-01  7.20000000E-01  7.20000000E-01
  8.50000000E-01  7.20000000E-01  7.20000000E-01  7.20000000E-01  8.50000000E-01
  7.20000000E-01  8.50000000E-01  8.50000000E-01  8.50000000E-01  7.20000000E-01
  7.20000000E-01  8.50000000E-01  7.20000000E-01  7.20000000E-01  8.50000000E-01
  7.20000000E-01  8.50000000E-01  8.50000000E-01  8.50000000E-01  7.20000000E-01
  7.20000000E-01  7.20000000E-01  7.20000000E-01  7.20000000E-01  8.50000000E-01
  7.20000000E-01  7.20000000E-01  7.20000000E-01  8.50000000E-01  7.20000000E-01
  7.20000000E-01  8.50000000E-01  8.50000000E-01  7.20000000E-01  7.20000000E-01
  7.20000000E-01  8.50000000E-01  7.20000000E-01  7.20000000E-01  7.20000000E-01
  8.50000000E-01  7.20000000E-01  8.50000000E-01  8.50000000E-01  8.50000000E-01
  7.20000000E-01  7.20000000E-01  8.50000000E-01  7.20000000E-01  7.20000000E-01
  8.50000000E-01  7.20000000E-01  8.50000000E-01  8.50000000E-01  8.50000000E-01
  7.20000000E-01  7.20000000E-01  7.20000000E-01  7.20000000E-01  7.20000000E-01
  8.50000000E-01  7.20000000E-01  7.20000000E-01  7.20000000E-01  8.50000000E-01
  7.20000000E-01  7.20000000E-01  8.50000000E-01  8.50000000E-01  7.20000000E-01
  7.20000000E-01  7.20000000E-01  8.50000000E-01  7.20000000E-01  7.20000000E-01
  7.20000000E-01  8.50000000E-01  7.20000000E-01  8.50000000E-01  8.50000000E-01
  8.50000000E-01  7.20000000E-01  7.20000000E-01  8.50000000E-01  7.20000000E-01
  7.20000000E-01  8.50000000E-01  7.20000000E-01  8.50000000E-01  8.50000000E-01
  8.50000000E-01  7.20000000E-01  7.20000000E-01  7.20000000E-01  7.20000000E-01
  7.20000000E-01  8.50000000E-01  7.20000000E-01  7.20000000E-01  7.20000000E-01
  8.50000000E-01  7.20000000E-01  7.20000000E-01  8.50000000E-01  8.50000000E-01
  7.20000000E-01  7.20000000E-01  7.20000000E-01  8.50000000E-01  7.20000000E-01
  7.20000000E-01  7.20000000E-01  8.50000000E-01  7.20000000E-01  8.50000000E-01
  8.50000000E-01  8.50000000E-01  7.20000000E-01  7.20000000E-01  8.50000000E-01
  7.20000000E-01  7.20000000E-01  8.50000000E-01  7.20000000E-01  8.50000000E-01
  8.50000000E-01  8.50000000E-01  7.20000000E-01  7.20000000E-01  7.20000000E-01
  7.20000000E-01  7.20000000E-01  8.50000000E-01  7.20000000E-01  7.20000000E-01
  7.20000000E-01  8.50000000E-01  7.20000000E-01  7.20000000E-01  8.50000000E-01
  8.50000000E-01  7.20000000E-01  7.20000000E-01  7.20000000E-01  8.50000000E-01
  7.20000000E-01  7.20000000E-01  7.20000000E-01  8.50000000E-01  7.20000000E-01
  8.50000000E-01  8.50000000E-01  8.50000000E-01  7.20000000E-01  7.20000000E-01
  8.50000000E-01  7.20000000E-01  7.20000000E-01  8.50000000E-01  7.20000000E-01
  8.50000000E-01  8.50000000E-01  8.50000000E-01  7.20000000E-01  7.20000000E-01
  7.20000000E-01  7.20000000E-01  7.20000000E-01  8.50000000E-01  7.20000000E-01
  7.20000000E-01  7.20000000E-01  8.50000000E-01  7.20000000E-01  7.20000000E-01
  8.50000000E-01  8.50000000E-01  7.20000000E-01  7.20000000E-01  7.20000000E-01
  8.50000000E-01  7.20000000E-01  7.20000000E-01  7.20000000E-01  8.50000000E-01
  7.20000000E-01  8.50000000E-01  8.50000000E-01  8.50000000E-01  7.20000000E-01
  7.20000000E-01  8.50000000E-01  7.20000000E-01  7.20000000E-01  8.50000000E-01
  7.20000000E-01  8.50000000E-01  8.50000000E-01  8.50000000E-01  7.20000000E-01
  7.20000000E-01  7.20000000E-01  7.20000000E-01  7.20000000E-01  8.50000000E-01
  7.20000000E-01  7.20000000E-01  7.20000000E-01  8.50000000E-01  7.20000000E-01
  7.20000000E-01  8.50000000E-01  8.50000000E-01  7.20000000E-01  7.20000000E-01
  7.20000000E-01  8.50000000E-01  7.20000000E-01  7.20000000E-01  7.20000000E-01
  8.50000000E-01  7.20000000E-01  8.50000000E-01  8.50000000E-01  8.50000000E-01
  7.20000000E-01  7.20000000E-01  8.50000000E-01  7.20000000E-01  7.20000000E-01
  8.50000000E-01  7.20000000E-01  8.50000000E-01  8.50000000E-01  8.50000000E-01
  7.20000000E-01  7.20000000E-01  7.20000000E-01  7.20000000E-01  7.20000000E-01
  8.50000000E-01  7.20000000E-01  7.20000000E-01  7.20000000E-01  8.50000000E-01
  7.20000000E-01  7.20000000E-01  8.50000000E-01  8.50000000E-01  7.20000000E-01
  7.20000000E-01  7.20000000E-01  8.50000000E-01  7.20000000E-01  7.20000000E-01
  7.20000000E-01  8.50000000E-01  7.20000000E-01  8.50000000E-01  8.50000000E-01
  8.50000000E-01  7.20000000E-01  7.20000000E-01  8.50000000E-01  7.20000000E-01
  7.20000000E-01  8.50000000E-01  7.20000000E-01  8.50000000E-01  8.50000000E-01
  8.50000000E-01  7.20000000E-01  7.20000000E-01  7.20000000E-01  7.20000000E-01
  7.20000000E-01  8.50000000E-01  7.20000000E-01  7.20000000E-01  7.20000000E-01
  8.50000000E-01  7.20000000E-01  7.20000000E-01  8.50000000E-01  8.50000000E-01
  7.20000000E-01  7.20000000E-01  7.20000000E-01  8.50000000E-01  7.20000000E-01
  7.20000000E-01  7.20000000E-01  8.50000000E-01  7.20000000E-01  8.50000000E-01
  8.50000000E-01  8.50000000E-01  7.20000000E-01  7.20000000E-01  8.50000000E-01
  7.20000000E-01  7.20000000E-01  8.50000000E-01  7.20000000E-01  8.50000000E-01
  8.50000000E-01  8.50000000E-01  7.20000000E-01  7.20000000E-01  7.20000000E-01
  7.20000000E-01  7.20000000E-01  8.50000000E-01  7.20000000E-01  7.20000000E-01
  7.20000000E-01  8.50000000E-01  7.20000000E-01  7.20000000E-01  8.50000000E-01
  8.50000000E-01  7.20000000E-01  7.20000000E-01  7.20000000E-01  8.50000000E-01
  7.20000000E-01  7.20000000E-01  7.20000000E-01  8.50000000E-01  7.20000000E-01
  8.50000000E-01  8.50000000E-01  8.50000000E-01  7.20000000E-01  7.20000000E-01
  8.50000000E-01  7.20000000E-01  7.20000000E-01  8.50000000E-01  7.20000000E-01
  8.50000000E-01  8.50000000E-01  8.50000000E-01  7.20000000E-01  7.20000000E-01
  7.20000000E-01  7.20000000E-01  7.20000000E-01  8.50000000E-01  7.20000000E-01
  7.20000000E-01  7.20000000E-01  8.50000000E-01  7.20000000E-01  7.20000000E-01
  8.50000000E-01  8.50000000E-01  7.20000000E-01  7.20000000E-01  7.20000000E-01
  8.50000000E-01  7.20000000E-01  7.20000000E-01  7.20000000E-01  8.50000000E-01
  7.20000000E-01  8.50000000E-01  8.50000000E-01  8.50000000E-01  7.20000000E-01
  7.20000000E-01  8.50000000E-01  7.20000000E-01  7.20000000E-01  8.50000000E-01
  7.20000000E-01  8.50000000E-01  8.50000000E-01  8.50000000E-01  7.20000000E-01
  7.20000000E-01  7.20000000E-01  7.20000000E-01  7.20000000E-01  8.50000000E-01
  7.20000000E-01  7.20000000E-01  7.20000000E-01  8.50000000E-01  7.20000000E-01
  7.20000000E-01  8.50000000E-01  8.50000000E-01  7.20000000E-01  7.20000000E-01
  7.20000000E-01  8.50000000E-01  7.20000000E-01  7.20000000E-01  7.20000000E-01
  8.50000000E-01  7.20000000E-01  8.50000000E-01  8.50000000E-01  8.50000000E-01
  7.20000000E-01  7.20000000E-01  8.50000000E-01  7.20000000E-01  7.20000000E-01
  8.50000000E-01  7.20000000E-01  8.50000000E-01  8.50000000E-01  8.50000000E-01
  7.20000000E-01  7.20000000E-01  7.20000000E-01  7.20000000E-01  7.20000000E-01
  8.50000000E-01  7.20000000E-01  7.20000000E-01  7.20000000E-01  8.50000000E-01
  7.20000000E-01  7.20000000E-01  8.50000000E-01  8.50000000E-01  7.20000000E-01
  7.20000000E-01  7.20000000E-01  8.50000000E-01  7.20000000E-01  7.20000000E-01
  7.20000000E-01  8.50000000E-01  7.20000000E-01  8.50000000E-01  8.50000000E-01
  8.50000000E-01  7.20000000E-01  7.20000000E-01  8.50000000E-01  7.20000000E-01
  7.20000000E-01  8.50000000E-01  7.20000000E-01  8.50000000E-01  8.50000000E-01
  8.50000000E-01  7.20000000E-01  7.20000000E-01  7.20000000E-01  7.20000000E-01
  7.20000000E-01  8.50000000E-01  7.20000000E-01  7.20000000E-01  7.20000000E-01
  8.50000000E-01  7.20000000E-01  7.20000000E-01  8.50000000E-01  8.50000000E-01
  7.20000000E-01  7.20000000E-01  7.20000000E-01  8.50000000E-01  7.20000000E-01
  7.20000000E-01  7.20000000E-01  8.50000000E-01  7.20000000E-01  8.50000000E-01
  8.50000000E-01  8.50000000E-01  7.20000000E-01  7.20000000E-01  8.50000000E-01
  7.20000000E-01  7.20000000E-01  8.50000000E-01  7.20000000E-01  8.50000000E-01
  8.50000000E-01  8.50000000E-01  7.20000000E-01  7.20000000E-01  7.20000000E-01
  7.20000000E-01  7.20000000E-01  8.50000000E-01  7.20000000E-01  7.20000000E-01
  7.20000000E-01  8.50000000E-01  7.20000000E-01  7.20000000E-01  8.50000000E-01
  8.50000000E-01  7.20000000E-01  7.20000000E-01  7.20000000E-01  8.50000000E-01
  7.20000000E-01  7.20000000E-01  7.20000000E-01  8.50000000E-01  7.20000000E-01
  8.50000000E-01  8.50000000E-01  8.50000000E-01  7.20000000E-01  7.20000000E-01
  8.50000000E-01  7.20000000E-01  7.20000000E-01  8.50000000E-01  7.20000000E-01
  8.50000000E-01  8.50000000E-01  8.50000000E-01  7.20000000E-01  7.20000000E-01
  7.20000000E-01  7.20000000E-01  7.20000000E-01  8.50000000E-01  7.20000000E-01
  7.20000000E-01  7.20000000E-01  8.50000000E-01  7.20000000E-01  7.20000000E-01
  8.50000000E-01  8.50000000E-01  7.20000000E-01  7.20000000E-01  7.20000000E-01
  8.50000000E-01  7.20000000E-01  7.20000000E-01  7.20000000E-01  8.50000000E-01
  7.20000000E-01  8.50000000E-01  8.50000000E-01  8.50000000E-01  7.20000000E-01
  7.20000000E-01  8.50000000E-01  7.20000000E-01  7.20000000E-01  8.50000000E-01
  7.20000000E-01  8.50000000E-01  8.50000000E-01  8.50000000E-01  7.20000000E-01
  7.20000000E-01  7.20000000E-01  7.20000000E-01  7.20000000E-01  8.50000000E-01
  7.20000000E-01  7.20000000E-01  7.20000000E-01  8.50000000E-01  7.20000000E-01
  7.20000000E-01  8.50000000E-01  8.50000000E-01  7.20000000E-01  7.20000000E-01
  7.20000000E-01  8.50000000E-01  7.20000000E-01  7.20000000E-01  7.20000000E-01
  8.50000000E-01  7.20000000E-01  8.50000000E-01  8.50000000E-01  8.50000000E-01
  7.20000000E-01  7.20000000E-01  8.50000000E-01  7.20000000E-01  7.20000000E-01
  8.50000000E-01  7.20000000E-01  8.50000000E-01  8.50000000E-01  8.50000000E-01
  7.20000000E-01  7.20000000E-01  7.20000000E-01  7.20000000E-01  7.20000000E-01
  8.50000000E-01  7.20000000E-01  7.20000000E-01  7.20000000E-01  8.50000000E-01
  7.20000000E-01  7.20000000E-01  8.50000000E-01  8.50000000E-01  7.20000000E-01
  7.20000000E-01  7.20000000E-01  8.50000000E-01  7.20000000E-01  7.20000000E-01
  7.20000000E-01  8.50000000E-01  7.20000000E-01  8.50000000E-01  8.50000000E-01
  8.50000000E-01  7.20000000E-01  7.20000000E-01  8.50000000E-01  7.20000000E-01
  7.20000000E-01  8.50000000E-01  7.20000000E-01  8.50000000E-01  8.50000000E-01
  8.50000000E-01  7.20000000E-01  7.20000000E-01  7.20000000E-01  7.20000000E-01
  7.20000000E-01  8.50000000E-01  7.20000000E-01  7.20000000E-01  7.20000000E-01
  8.50000000E-01  7.20000000E-01  7.20000000E-01  8.50000000E-01  8.50000000E-01
  7.20000000E-01  7.20000000E-01  7.20000000E-01  8.50000000E-01  7.20000000E-01
  7.20000000E-01  7.20000000E-01  8.50000000E-01  7.20000000E-01  8.50000000E-01
  8.50000000E-01  8.50000000E-01  7.20000000E-01  7.20000000E-01  8.50000000E-01
  7.20000000E-01  7.20000000E-01  8.50000000E-01  7.20000000E-01  8.50000000E-01
  8.50000000E-01  8.50000000E-01  7.20000000E-01  7.20000000E-01  7.20000000E-01
  7.20000000E-01  7.20000000E-01  8.50000000E-01  7.20000000E-01  7.20000000E-01
  7.20000000E-01  8.50000000E-01  7.20000000E-01  7.20000000E-01  8.50000000E-01
  8.50000000E-01  7.20000000E-01  7.20000000E-01  7.20000000E-01  8.50000000E-01
  7.20000000E-01  7.20000000E-01  7.20000000E-01  8.50000000E-01  7.20000000E-01
  8.50000000E-01  8.50000000E-01  8.50000000E-01  7.20000000E-01  7.20000000E-01
  8.50000000E-01  7.20000000E-01  7.20000000E-01  8.50000000E-01  7.20000000E-01
  8.50000000E-01  8.50000000E-01  8.50000000E-01  7.20000000E-01  7.20000000E-01
  7.20000000E-01  7.20000000E-01  7.20000000E-01  8.50000000E-01  7.20000000E-01
  7.20000000E-01  7.20000000E-01  8.50000000E-01  7.20000000E-01  7.20000000E-01
  8.50000000E-01  8.50000000E-01  7.20000000E-01  7.20000000E-01  7.20000000E-01
  8.50000000E-01  7.20000000E-01  7.20000000E-01  7.20000000E-01  8.50000000E-01
  7.20000000E-01  8.50000000E-01  8.50000000E-01  8.50000000E-01  7.20000000E-01
  7.20000000E-01  8.50000000E-01  7.20000000E-01  7.20000000E-01  8.50000000E-01
  7.20000000E-01  8.50000000E-01  8.50000000E-01  8.50000000E-01  7.20000000E-01
  7.20000000E-01  7.20000000E-01  7.20000000E-01  7.20000000E-01  8.50000000E-01
  7.20000000E-01  7.20000000E-01  7.20000000E-01  8.50000000E-01  7.20000000E-01
  7.20000000E-01  8.50000000E-01  8.50000000E-01  7.20000000E-01  7.20000000E-01
  7.20000000E-01  8.50000000E-01  7.20000000E-01  7.20000000E-01  7.20000000E-01
  8.50000000E-01  7.20000000E-01  8.50000000E-01  8.50000000E-01  8.50000000E-01
  7.20000000E-01  7.20000000E-01  8.50000000E-01  7.20000000E-01  7.20000000E-01
  8.50000000E-01  7.20000000E-01  8.50000000E-01  8.50000000E-01  8.50000000E-01
  7.20000000E-01  7.20000000E-01  7.20000000E-01  7.20000000E-01  7.20000000E-01
  8.50000000E-01  7.20000000E-01  7.20000000E-01  7.20000000E-01  8.50000000E-01
  7.20000000E-01  7.20000000E-01  8.50000000E-01  8.50000000E-01  7.20000000E-01
  7.20000000E-01  7.20000000E-01  8.50000000E-01  7.20000000E-01  7.20000000E-01
  7.20000000E-01  8.50000000E-01  7.20000000E-01  8.50000000E-01  8.50000000E-01
  8.50000000E-01  7.20000000E-01  7.20000000E-01  8.50000000E-01  7.20000000E-01
  7.20000000E-01  8.50000000E-01  7.20000000E-01  8.50000000E-01  8.50000000E-01
  8.50000000E-01  7.20000000E-01  7.20000000E-01  7.20000000E-01  7.20000000E-01
  7.20000000E-01  8.50000000E-01  7.20000000E-01  7.20000000E-01  7.20000000E-01
  8.50000000E-01  7.20000000E-01  7.20000000E-01  8.50000000E-01  8.50000000E-01
  7.20000000E-01  7.20000000E-01  7.20000000E-01  8.50000000E-01  7.20000000E-01
  7.20000000E-01  7.20000000E-01  8.50000000E-01  7.20000000E-01  8.50000000E-01
  8.50000000E-01  8.50000000E-01  7.20000000E-01  7.20000000E-01  8.50000000E-01
  7.20000000E-01  7.20000000E-01  8.50000000E-01  7.20000000E-01  8.50000000E-01
  8.50000000E-01  8.50000000E-01  7.20000000E-01  7.20000000E-01  7.20000000E-01
  7.20000000E-01  7.20000000E-01  8.50000000E-01  7.20000000E-01  7.20000000E-01
  7.20000000E-01  8.50000000E-01  7.20000000E-01  7.20000000E-01  8.50000000E-01
  8.50000000E-01  7.20000000E-01  7.20000000E-01  7.20000000E-01  8.50000000E-01
  7.20000000E-01  7.20000000E-01  7.20000000E-01  8.50000000E-01  7.20000000E-01
  8.50000000E-01  8.50000000E-01  8.50000000E-01  7.20000000E-01  7.20000000E-01
  8.50000000E-01  7.20000000E-01  7.20000000E-01  8.50000000E-01  7.20000000E-01
  8.50000000E-01  8.50000000E-01  8.50000000E-01  7.20000000E-01  7.20000000E-01
  7.20000000E-01  7.20000000E-01  7.20000000E-01  8.50000000E-01  7.20000000E-01
  7.20000000E-01  7.20000000E-01  8.50000000E-01  7.20000000E-01  7.20000000E-01
  8.50000000E-01  8.50000000E-01  7.20000000E-01  7.20000000E-01  7.20000000E-01
  8.50000000E-01  7.20000000E-01  7.20000000E-01  7.20000000E-01  8.50000000E-01
  7.20000000E-01  8.50000000E-01  8.50000000E-01  8.50000000E-01  7.20000000E-01
  7.20000000E-01  8.50000000E-01  7.20000000E-01  7.20000000E-01  8.50000000E-01
  7.20000000E-01  8.50000000E-01  8.50000000E-01  8.50000000E-01  7.20000000E-01
  7.20000000E-01  7.20000000E-01  7.20000000E-01  7.20000000E-01  8.50000000E-01
  7.20000000E-01  7.20000000E-01  7.20000000E-01  8.50000000E-01  7.20000000E-01
  7.20000000E-01  8.50000000E-01  8.50000000E-01  7.20000000E-01  7.20000000E-01
  7.20000000E-01  8.50000000E-01  7.20000000E-01  7.20000000E-01  7.20000000E-01
  8.50000000E-01  7.20000000E-01  8.50000000E-01  8.50000000E-01  8.50000000E-01
  7.20000000E-01  7.20000000E-01  8.50000000E-01  7.20000000E-01  7.20000000E-01
  8.50000000E-01  7.20000000E-01  8.50000000E-01  8.50000000E-01  8.50000000E-01
  7.20000000E-01  7.20000000E-01  7.20000000E-01  7.20000000E-01  7.20000000E-01
  8.50000000E-01  7.20000000E-01  7.20000000E-01  7.20000000E-01  8.50000000E-01
  7.20000000E-01  7.20000000E-01  8.50000000E-01  8.50000000E-01  7.20000000E-01
  7.20000000E-01  7.20000000E-01  8.50000000E-01  7.20000000E-01  7.20000000E-01
  7.20000000E-01  8.50000000E-01  7.20000000E-01  8.50000000E-01  8.50000000E-01
  8.50000000E-01  7.20000000E-01  7.20000000E-01  8.50000000E-01  7.20000000E-01
  7.20000000E-01  8.50000000E-01  7.20000000E-01  8.50000000E-01  8.50000000E-01
  8.50000000E-01  7.20000000E-01  7.20000000E-01  7.20000000E-01  7.20000000E-01
  7.20000000E-01  8.50000000E-01  7.20000000E-01  7.20000000E-01  7.20000000E-01
  8.50000000E-01  7.20000000E-01  7.20000000E-01  8.50000000E-01  8.50000000E-01
  7.20000000E-01  7.20000000E-01  7.20000000E-01  8.50000000E-01  7.20000000E-01
  7.20000000E-01  7.20000000E-01  8.50000000E-01  7.20000000E-01  8.50000000E-01
  8.50000000E-01  8.50000000E-01  7.20000000E-01  7.20000000E-01  8.50000000E-01
  7.20000000E-01  7.20000000E-01  8.50000000E-01  7.20000000E-01  8.50000000E-01
  8.50000000E-01  8.50000000E-01  7.20000000E-01  7.20000000E-01  7.20000000E-01
  7.20000000E-01  7.20000000E-01  8.50000000E-01  7.20000000E-01  7.20000000E-01
  7.20000000E-01  8.50000000E-01  7.20000000E-01  7.20000000E-01  8.50000000E-01
  8.50000000E-01  7.20000000E-01  7.20000000E-01  7.20000000E-01  8.50000000E-01
  7.20000000E-01  7.20000000E-01  7.20000000E-01  8.50000000E-01  7.20000000E-01
  8.50000000E-01  8.50000000E-01  8.50000000E-01  7.20000000E-01  7.20000000E-01
  8.50000000E-01  7.20000000E-01  7.20000000E-01  8.50000000E-01  7.20000000E-01
  8.50000000E-01  8.50000000E-01  8.50000000E-01  7.20000000E-01  7.20000000E-01
  7.20000000E-01  7.20000000E-01  7.20000000E-01  8.50000000E-01  7.20000000E-01
  7.20000000E-01  7.20000000E-01  8.50000000E-01  7.20000000E-01  7.20000000E-01
  8.50000000E-01  8.50000000E-01  7.20000000E-01  7.20000000E-01  7.20000000E-01
  8.50000000E-01  7.20000000E-01  7.20000000E-01  7.20000000E-01  8.50000000E-01
  7.20000000E-01  8.50000000E-01  8.50000000E-01  8.50000000E-01  7.20000000E-01
  7.20000000E-01  8.50000000E-01  7.20000000E-01  7.20000000E-01  8.50000000E-01
  7.20000000E-01  8.50000000E-01  8.50000000E-01  8.50000000E-01  7.20000000E-01
  7.20000000E-01  7.20000000E-01  7.20000000E-01  7.20000000E-01  8.50000000E-01
  7.20000000E-01  7.20000000E-01  7.20000000E-01  8.50000000E-01  7.20000000E-01
  7.20000000E-01  8.50000000E-01  8.50000000E-01  7.20000000E-01  7.20000000E-01
  7.20000000E-01  8.50000000E-01  7.20000000E-01  7.20000000E-01  7.20000000E-01
  8.50000000E-01  7.20000000E-01  8.50000000E-01  8.50000000E-01  8.50000000E-01
  7.20000000E-01  7.20000000E-01  8.50000000E-01  7.20000000E-01  7.20000000E-01
  8.50000000E-01  7.20000000E-01  8.50000000E-01  8.50000000E-01  8.50000000E-01
  7.20000000E-01  7.20000000E-01  7.20000000E-01  7.20000000E-01  7.20000000E-01
  8.50000000E-01  7.20000000E-01  7.20000000E-01  7.20000000E-01  8.50000000E-01
  7.20000000E-01  7.20000000E-01  8.50000000E-01  8.50000000E-01  7.20000000E-01
  7.20000000E-01  7.20000000E-01  8.50000000E-01  7.20000000E-01  7.20000000E-01
  7.20000000E-01  8.50000000E-01  7.20000000E-01  8.50000000E-01  8.50000000E-01
  8.50000000E-01  7.20000000E-01  7.20000000E-01  8.50000000E-01  7.20000000E-01
  7.20000000E-01  8.50000000E-01  7.20000000E-01  8.50000000E-01  8.50000000E-01
  8.50000000E-01  7.20000000E-01  7.20000000E-01  7.20000000E-01  7.20000000E-01
  7.20000000E-01  8.50000000E-01  7.20000000E-01  7.20000000E-01  7.20000000E-01
  8.50000000E-01  7.20000000E-01  7.20000000E-01  8.50000000E-01  8.50000000E-01
  7.20000000E-01  7.20000000E-01  7.20000000E-01  8.50000000E-01  7.20000000E-01
  7.20000000E-01  7.20000000E-01  8.50000000E-01  7.20000000E-01  8.50000000E-01
  8.50000000E-01  8.50000000E-01  7.20000000E-01  7.20000000E-01  8.50000000E-01
  7.20000000E-01  7.20000000E-01  8.50000000E-01  7.20000000E-01  8.50000000E-01
  8.50000000E-01  8.50000000E-01  7.20000000E-01  7.20000000E-01  7.20000000E-01
  7.20000000E-01  7.20000000E-01  8.50000000E-01  7.20000000E-01  7.20000000E-01
  7.20000000E-01  8.50000000E-01  7.20000000E-01  7.20000000E-01  8.50000000E-01
  8.50000000E-01  7.20000000E-01  7.20000000E-01  7.20000000E-01  8.50000000E-01
  7.20000000E-01  7.20000000E-01  7.20000000E-01  8.50000000E-01  7.20000000E-01
  8.50000000E-01  8.50000000E-01  8.50000000E-01  7.20000000E-01  7.20000000E-01
  8.50000000E-01  7.20000000E-01  7.20000000E-01  8.50000000E-01  7.20000000E-01
  8.50000000E-01  8.50000000E-01  8.50000000E-01  7.20000000E-01  7.20000000E-01
  7.20000000E-01  7.20000000E-01  7.20000000E-01  8.50000000E-01  7.20000000E-01
  7.20000000E-01  7.20000000E-01  8.50000000E-01  7.20000000E-01  7.20000000E-01
  8.50000000E-01  8.50000000E-01  7.20000000E-01  7.20000000E-01  7.20000000E-01
  8.50000000E-01  7.20000000E-01  7.20000000E-01  7.20000000E-01  8.50000000E-01
  7.20000000E-01  8.50000000E-01  8.50000000E-01  8.50000000E-01  7.20000000E-01
  7.20000000E-01  8.50000000E-01  7.20000000E-01  7.20000000E-01  8.50000000E-01
  7.20000000E-01  8.50000000E-01  8.50000000E-01  8.50000000E-01  7.20000000E-01
  7.20000000E-01  7.20000000E-01  7.20000000E-01  7.20000000E-01  8.50000000E-01
  7.20000000E-01  7.20000000E-01  7.20000000E-01  8.50000000E-01  7.20000000E-01
  7.20000000E-01  8.50000000E-01  8.50000000E-01  7.20000000E-01  7.20000000E-01
  7.20000000E-01  8.50000000E-01  7.20000000E-01  7.20000000E-01  7.20000000E-01
  8.50000000E-01  7.20000000E-01  8.50000000E-01  8.50000000E-01  8.50000000E-01
  7.20000000E-01  7.20000000E-01  8.50000000E-01  7.20000000E-01  7.20000000E-01
  8.50000000E-01  7.20000000E-01  8.50000000E-01  8.50000000E-01  8.50000000E-01
  7.20000000E-01  7.20000000E-01  7.20000000E-01  7.20000000E-01  7.20000000E-01
  8.50000000E-01  7.20000000E-01  7.20000000E-01  7.20000000E-01  8.50000000E-01
  7.20000000E-01  7.20000000E-01  8.50000000E-01  8.50000000E-01  7.20000000E-01
  7.20000000E-01  7.20000000E-01  8.50000000E-01  7.20000000E-01  7.20000000E-01
  7.20000000E-01  8.50000000E-01  7.20000000E-01  8.50000000E-01  8.50000000E-01
  8.50000000E-01  7.20000000E-01  7.20000000E-01  8.50000000E-01  7.20000000E-01
  7.20000000E-01  8.50000000E-01  7.20000000E-01  8.50000000E-01  8.50000000E-01
  8.50000000E-01  7.20000000E-01  7.20000000E-01  7.20000000E-01  7.20000000E-01
  7.20000000E-01  8.50000000E-01  7.20000000E-01  7.20000000E-01  7.20000000E-01
  8.50000000E-01  7.20000000E-01  7.20000000E-01  8.50000000E-01  8.50000000E-01
  7.20000000E-01  7.20000000E-01  7.20000000E-01  8.50000000E-01  7.20000000E-01
  7.20000000E-01  7.20000000E-01  8.50000000E-01  7.20000000E-01  8.50000000E-01
  8.50000000E-01  8.50000000E-01  7.20000000E-01  7.20000000E-01  8.50000000E-01
  7.20000000E-01  7.20000000E-01  8.50000000E-01  7.20000000E-01  8.50000000E-01
  8.50000000E-01  8.50000000E-01  7.20000000E-01  7.20000000E-01  7.20000000E-01
  7.20000000E-01  7.20000000E-01  8.50000000E-01  7.20000000E-01  7.20000000E-01
  7.20000000E-01  8.50000000E-01  7.20000000E-01  7.20000000E-01  8.50000000E-01
  8.50000000E-01  7.20000000E-01  7.20000000E-01  7.20000000E-01  8.50000000E-01
  7.20000000E-01  7.20000000E-01  7.20000000E-01  8.50000000E-01  7.20000000E-01
  8.50000000E-01  8.50000000E-01  8.50000000E-01  7.20000000E-01  7.20000000E-01
  8.50000000E-01  7.20000000E-01  7.20000000E-01  8.50000000E-01  7.20000000E-01
  8.50000000E-01  8.50000000E-01  8.50000000E-01  7.20000000E-01  7.20000000E-01
  7.20000000E-01  7.20000000E-01  7.20000000E-01  8.50000000E-01  7.20000000E-01
  7.20000000E-01  7.20000000E-01  8.50000000E-01  7.20000000E-01  7.20000000E-01
  8.50000000E-01  8.50000000E-01  7.20000000E-01  7.20000000E-01  7.20000000E-01
  8.50000000E-01  7.20000000E-01  7.20000000E-01  7.20000000E-01  8.50000000E-01
  7.20000000E-01  8.50000000E-01  8.50000000E-01  8.50000000E-01  7.20000000E-01
  7.20000000E-01  8.50000000E-01  7.20000000E-01  7.20000000E-01  8.50000000E-01
  7.20000000E-01  8.50000000E-01  8.50000000E-01  8.50000000E-01  7.20000000E-01
  7.20000000E-01  7.20000000E-01  7.20000000E-01  7.20000000E-01  8.50000000E-01
  7.20000000E-01  7.20000000E-01  7.20000000E-01  8.50000000E-01  7.20000000E-01
  7.20000000E-01  8.50000000E-01  8.50000000E-01  7.20000000E-01  7.20000000E-01
  7.20000000E-01  8.50000000E-01  7.20000000E-01  7.20000000E-01  7.20000000E-01
  8.50000000E-01  7.20000000E-01  8.50000000E-01  8.50000000E-01  8.50000000E-01
  7.20000000E-01  7.20000000E-01  8.50000000E-01  7.20000000E-01  7.20000000E-01
  8.50000000E-01  7.20000000E-01  8.50000000E-01  8.50000000E-01  8.50000000E-01
  7.20000000E-01  7.20000000E-01  7.20000000E-01  7.20000000E-01  7.20000000E-01
  8.50000000E-01  7.20000000E-01  7.20000000E-01  7.20000000E-01  8.50000000E-01
  7.20000000E-01  7.20000000E-01  8.50000000E-01  8.50000000E-01  7.20000000E-01
  7.20000000E-01  7.20000000E-01  8.50000000E-01  7.20000000E-01  7.20000000E-01
  7.20000000E-01  8.50000000E-01  7.20000000E-01  8.50000000E-01  8.50000000E-01
  8.50000000E-01  7.20000000E-01  7.20000000E-01  8.50000000E-01  7.20000000E-01
  7.20000000E-01  8.50000000E-01  7.20000000E-01  8.50000000E-01  8.50000000E-01
  8.50000000E-01  7.20000000E-01  7.20000000E-01  7.20000000E-01  7.20000000E-01
  7.20000000E-01  8.50000000E-01  7.20000000E-01  7.20000000E-01  7.20000000E-01
  8.50000000E-01  7.20000000E-01  7.20000000E-01  8.50000000E-01  8.50000000E-01
  7.20000000E-01  7.20000000E-01  7.20000000E-01  8.50000000E-01  7.20000000E-01
  7.20000000E-01  7.20000000E-01  8.50000000E-01  7.20000000E-01  8.50000000E-01
  8.50000000E-01  8.50000000E-01  7.20000000E-01  7.20000000E-01  8.50000000E-01
  7.20000000E-01  7.20000000E-01  8.50000000E-01  7.20000000E-01  8.50000000E-01
  8.50000000E-01  8.50000000E-01  7.20000000E-01  7.20000000E-01  7.20000000E-01
  7.20000000E-01  7.20000000E-01  8.50000000E-01  7.20000000E-01  7.20000000E-01
  7.20000000E-01  8.50000000E-01  7.20000000E-01  7.20000000E-01  8.50000000E-01
  8.50000000E-01  7.20000000E-01  7.20000000E-01  7.20000000E-01  8.50000000E-01
  7.20000000E-01  7.20000000E-01  7.20000000E-01  8.50000000E-01  7.20000000E-01
  8.50000000E-01  8.50000000E-01  8.50000000E-01  7.20000000E-01  7.20000000E-01
  8.50000000E-01  7.20000000E-01  7.20000000E-01  8.50000000E-01  7.20000000E-01
  8.50000000E-01  8.50000000E-01  8.50000000E-01  7.20000000E-01  7.20000000E-01
  7.20000000E-01  7.20000000E-01  7.20000000E-01  8.50000000E-01  7.20000000E-01
  7.20000000E-01  7.20000000E-01  8.50000000E-01  7.20000000E-01  7.20000000E-01
  8.50000000E-01  8.50000000E-01  7.20000000E-01  7.20000000E-01  7.20000000E-01
  8.50000000E-01  7.20000000E-01  7.20000000E-01  7.20000000E-01  8.50000000E-01
  7.20000000E-01  8.50000000E-01  8.50000000E-01  8.50000000E-01  7.20000000E-01
  7.20000000E-01  8.50000000E-01  7.20000000E-01  7.20000000E-01  8.50000000E-01
  7.20000000E-01  8.50000000E-01  8.50000000E-01  8.50000000E-01  7.20000000E-01
  7.20000000E-01  7.20000000E-01  7.20000000E-01  7.20000000E-01  8.50000000E-01
  7.20000000E-01  7.20000000E-01  7.20000000E-01  8.50000000E-01  7.20000000E-01
  7.20000000E-01  8.50000000E-01  8.50000000E-01  7.20000000E-01  7.20000000E-01
  7.20000000E-01  8.50000000E-01  7.20000000E-01  7.20000000E-01  7.20000000E-01
  8.50000000E-01  7.20000000E-01  8.50000000E-01  8.50000000E-01  8.50000000E-01
  7.20000000E-01  7.20000000E-01  8.50000000E-01  7.20000000E-01  7.20000000E-01
  8.50000000E-01  7.20000000E-01  8.50000000E-01  8.50000000E-01  8.50000000E-01
  7.20000000E-01  7.20000000E-01  7.20000000E-01  7.20000000E-01  7.20000000E-01
  8.50000000E-01  7.20000000E-01  7.20000000E-01  7.20000000E-01  8.50000000E-01
  7.20000000E-01  7.20000000E-01  8.50000000E-01  8.50000000E-01  7.20000000E-01
  7.20000000E-01  7.20000000E-01  8.50000000E-01  7.20000000E-01  7.20000000E-01
  7.20000000E-01  8.50000000E-01  7.20000000E-01  8.50000000E-01  8.50000000E-01
  8.50000000E-01  7.20000000E-01  7.20000000E-01  8.50000000E-01  7.20000000E-01
  7.20000000E-01  8.50000000E-01  7.20000000E-01  8.50000000E-01  8.50000000E-01
  8.50000000E-01  7.20000000E-01  7.20000000E-01  7.20000000E-01  7.20000000E-01
  7.20000000E-01  8.50000000E-01  7.20000000E-01  7.20000000E-01  7.20000000E-01
  8.50000000E-01  7.20000000E-01  7.20000000E-01  8.50000000E-01  8.50000000E-01
  7.20000000E-01  7.20000000E-01  7.20000000E-01  8.50000000E-01  7.20000000E-01
  7.20000000E-01  7.20000000E-01  8.50000000E-01  7.20000000E-01  8.50000000E-01
  8.50000000E-01  8.50000000E-01  7.20000000E-01  7.20000000E-01  8.50000000E-01
  7.20000000E-01  7.20000000E-01  8.50000000E-01  7.20000000E-01  8.50000000E-01
  8.50000000E-01  8.50000000E-01  7.20000000E-01  7.20000000E-01  7.20000000E-01
  7.20000000E-01  7.20000000E-01  8.50000000E-01  7.20000000E-01  7.20000000E-01
  7.20000000E-01  8.50000000E-01  7.20000000E-01  7.20000000E-01  8.50000000E-01
  8.50000000E-01  7.20000000E-01  7.20000000E-01  7.20000000E-01  8.50000000E-01
  7.20000000E-01  7.20000000E-01  7.20000000E-01  8.50000000E-01  7.20000000E-01
  8.50000000E-01  8.50000000E-01  8.50000000E-01  7.20000000E-01  7.20000000E-01
  8.50000000E-01  7.20000000E-01  7.20000000E-01  8.50000000E-01  7.20000000E-01
  8.50000000E-01  8.50000000E-01  8.50000000E-01  7.20000000E-01  7.20000000E-01
  7.20000000E-01  7.20000000E-01  7.20000000E-01  8.50000000E-01  7.20000000E-01
  7.20000000E-01  7.20000000E-01  8.50000000E-01  7.20000000E-01  7.20000000E-01
  8.50000000E-01  8.50000000E-01  7.20000000E-01  7.20000000E-01  7.20000000E-01
  8.50000000E-01  7.20000000E-01  7.20000000E-01  7.20000000E-01  8.50000000E-01
  7.20000000E-01  8.50000000E-01  8.50000000E-01  8.50000000E-01  7.20000000E-01
  7.20000000E-01  8.50000000E-01  7.20000000E-01  7.20000000E-01  8.50000000E-01
  7.20000000E-01  8.50000000E-01  8.50000000E-01  8.50000000E-01  7.20000000E-01
  7.20000000E-01  7.20000000E-01  7.20000000E-01  7.20000000E-01  8.50000000E-01
  7.20000000E-01  7.20000000E-01  7.20000000E-01  8.50000000E-01  7.20000000E-01
  7.20000000E-01  8.50000000E-01  8.50000000E-01  7.20000000E-01  7.20000000E-01
  7.20000000E-01  8.50000000E-01  7.20000000E-01  7.20000000E-01  7.20000000E-01
  8.50000000E-01  7.20000000E-01  8.50000000E-01  8.50000000E-01  8.50000000E-01
  7.20000000E-01  7.20000000E-01  8.50000000E-01  7.20000000E-01  7.20000000E-01
  8.50000000E-01  7.20000000E-01  8.50000000E-01  8.50000000E-01  8.50000000E-01
  7.20000000E-01  7.20000000E-01  7.20000000E-01  7.20000000E-01  7.20000000E-01
  8.50000000E-01  7.20000000E-01  7.20000000E-01  7.20000000E-01  8.50000000E-01
  7.20000000E-01  7.20000000E-01  8.50000000E-01  8.50000000E-01  7.20000000E-01
  7.20000000E-01  7.20000000E-01  8.50000000E-01  7.20000000E-01  7.20000000E-01
  7.20000000E-01  8.50000000E-01  7.20000000E-01  8.50000000E-01  8.50000000E-01
  8.50000000E-01  7.20000000E-01  7.20000000E-01  8.50000000E-01  7.20000000E-01
  7.20000000E-01  8.50000000E-01  7.20000000E-01  8.50000000E-01  8.50000000E-01
  8.50000000E-01  7.20000000E-01  7.20000000E-01  7.20000000E-01  7.20000000E-01
  7.20000000E-01  8.50000000E-01  7.20000000E-01  7.20000000E-01  7.20000000E-01
  8.50000000E-01  7.20000000E-01  7.20000000E-01  8.50000000E-01  8.50000000E-01
  7.20000000E-01  7.20000000E-01  7.20000000E-01  8.50000000E-01  7.20000000E-01
  7.20000000E-01  7.20000000E-01  8.50000000E-01  7.20000000E-01  8.50000000E-01
  8.50000000E-01  8.50000000E-01  7.20000000E-01  7.20000000E-01  8.50000000E-01
  7.20000000E-01  7.20000000E-01  8.50000000E-01  7.20000000E-01  8.50000000E-01
  8.50000000E-01  8.50000000E-01  7.20000000E-01  7.20000000E-01  7.20000000E-01
  7.20000000E-01  7.20000000E-01  8.50000000E-01  7.20000000E-01  7.20000000E-01
  7.20000000E-01  8.50000000E-01  7.20000000E-01  7.20000000E-01  8.50000000E-01
  8.50000000E-01  7.20000000E-01  7.20000000E-01  7.20000000E-01  8.50000000E-01
  7.20000000E-01  7.20000000E-01  7.20000000E-01  8.50000000E-01  7.20000000E-01
  8.50000000E-01  8.50000000E-01  8.50000000E-01  7.20000000E-01  7.20000000E-01
  8.50000000E-01  7.20000000E-01  7.20000000E-01  8.50000000E-01  7.20000000E-01
  8.50000000E-01  8.50000000E-01  8.50000000E-01  7.20000000E-01  7.20000000E-01
  7.20000000E-01  7.20000000E-01  7.20000000E-01  8.50000000E-01  7.20000000E-01
  7.20000000E-01  7.20000000E-01  8.50000000E-01  7.20000000E-01  7.20000000E-01
  8.50000000E-01  8.50000000E-01  7.20000000E-01  7.20000000E-01  7.20000000E-01
  8.50000000E-01  7.20000000E-01  7.20000000E-01  7.20000000E-01  8.50000000E-01
  7.20000000E-01  8.50000000E-01  8.50000000E-01  8.50000000E-01  7.20000000E-01
  7.20000000E-01  8.50000000E-01  7.20000000E-01  7.20000000E-01  8.50000000E-01
  7.20000000E-01  8.50000000E-01  8.50000000E-01  8.50000000E-01  7.20000000E-01
  7.20000000E-01  7.20000000E-01  7.20000000E-01  7.20000000E-01  8.50000000E-01
  7.20000000E-01  7.20000000E-01  7.20000000E-01  8.50000000E-01  7.20000000E-01
  7.20000000E-01  8.50000000E-01  8.50000000E-01  7.20000000E-01  7.20000000E-01
  7.20000000E-01  8.50000000E-01  7.20000000E-01  7.20000000E-01  7.20000000E-01
  8.50000000E-01  7.20000000E-01  8.50000000E-01  8.50000000E-01  8.50000000E-01
  7.20000000E-01  7.20000000E-01  8.50000000E-01  7.20000000E-01  7.20000000E-01
  8.50000000E-01  7.20000000E-01  8.50000000E-01  8.50000000E-01  8.50000000E-01
  7.20000000E-01  7.20000000E-01  7.20000000E-01  7.20000000E-01  7.20000000E-01
  8.50000000E-01  7.20000000E-01  7.20000000E-01  7.20000000E-01  8.50000000E-01
  7.20000000E-01  7.20000000E-01  8.50000000E-01  8.50000000E-01  7.20000000E-01
  7.20000000E-01  7.20000000E-01  8.50000000E-01  7.20000000E-01  7.20000000E-01
  7.20000000E-01  8.50000000E-01  7.20000000E-01  8.50000000E-01  8.50000000E-01
  8.50000000E-01  7.20000000E-01  7.20000000E-01  8.50000000E-01  7.20000000E-01
  7.20000000E-01  8.50000000E-01  7.20000000E-01  8.50000000E-01  8.50000000E-01
  8.50000000E-01  7.20000000E-01  7.20000000E-01  7.20000000E-01  7.20000000E-01
  7.20000000E-01  8.50000000E-01  7.20000000E-01  7.20000000E-01  7.20000000E-01
  8.50000000E-01  7.20000000E-01  7.20000000E-01  8.50000000E-01  8.50000000E-01
  7.20000000E-01  7.20000000E-01  7.20000000E-01  8.50000000E-01  7.20000000E-01
  7.20000000E-01  7.20000000E-01  8.50000000E-01  7.20000000E-01  8.50000000E-01
  8.50000000E-01  8.50000000E-01  7.20000000E-01  7.20000000E-01  8.50000000E-01
  7.20000000E-01  7.20000000E-01  8.50000000E-01  7.20000000E-01  8.50000000E-01
  8.50000000E-01  8.50000000E-01  7.20000000E-01  7.20000000E-01  7.20000000E-01
  7.20000000E-01  7.20000000E-01  8.50000000E-01  7.20000000E-01  7.20000000E-01
  7.20000000E-01  8.50000000E-01  7.20000000E-01  7.20000000E-01  8.50000000E-01
  8.50000000E-01  7.20000000E-01  7.20000000E-01  7.20000000E-01  8.50000000E-01
  7.20000000E-01  7.20000000E-01  7.20000000E-01  8.50000000E-01  7.20000000E-01
  8.50000000E-01  8.50000000E-01  8.50000000E-01  7.20000000E-01  7.20000000E-01
  8.50000000E-01  7.20000000E-01  7.20000000E-01  8.50000000E-01  7.20000000E-01
  8.50000000E-01  8.50000000E-01  8.50000000E-01  7.20000000E-01  7.20000000E-01
  7.20000000E-01  7.20000000E-01  7.20000000E-01  8.50000000E-01  7.20000000E-01
  7.20000000E-01  7.20000000E-01  8.50000000E-01  7.20000000E-01  7.20000000E-01
  8.50000000E-01  8.50000000E-01  7.20000000E-01  7.20000000E-01  7.20000000E-01
  8.50000000E-01  7.20000000E-01  7.20000000E-01  7.20000000E-01  8.50000000E-01
  7.20000000E-01  8.50000000E-01  8.50000000E-01  8.50000000E-01  7.20000000E-01
  7.20000000E-01  8.50000000E-01  7.20000000E-01  7.20000000E-01  8.50000000E-01
  7.20000000E-01  8.50000000E-01  8.50000000E-01  8.50000000E-01  7.20000000E-01
  7.20000000E-01  7.20000000E-01  7.20000000E-01  7.20000000E-01  8.50000000E-01
  7.20000000E-01  7.20000000E-01  7.20000000E-01  8.50000000E-01  7.20000000E-01
  7.20000000E-01  8.50000000E-01  8.50000000E-01  7.20000000E-01  7.20000000E-01
  7.20000000E-01  8.50000000E-01  7.20000000E-01  7.20000000E-01  7.20000000E-01
  8.50000000E-01  7.20000000E-01  8.50000000E-01  8.50000000E-01  8.50000000E-01
  7.20000000E-01  7.20000000E-01  8.50000000E-01  7.20000000E-01  7.20000000E-01
  8.50000000E-01  7.20000000E-01  8.50000000E-01  8.50000000E-01  8.50000000E-01
  7.20000000E-01  7.20000000E-01  7.20000000E-01  7.20000000E-01  7.20000000E-01
  8.50000000E-01  7.20000000E-01  7.20000000E-01  7.20000000E-01  8.50000000E-01
  7.20000000E-01  7.20000000E-01  8.50000000E-01  8.50000000E-01  7.20000000E-01
  7.20000000E-01  7.20000000E-01  8.50000000E-01  7.20000000E-01  7.20000000E-01
  7.20000000E-01  8.50000000E-01  7.20000000E-01  8.50000000E-01  8.50000000E-01
  8.50000000E-01  7.20000000E-01  7.20000000E-01  8.50000000E-01  7.20000000E-01
  7.20000000E-01  8.50000000E-01  7.20000000E-01  8.50000000E-01  8.50000000E-01
  8.50000000E-01  7.20000000E-01  7.20000000E-01  7.20000000E-01  7.20000000E-01
  7.20000000E-01  8.50000000E-01  7.20000000E-01  7.20000000E-01  7.20000000E-01
  8.50000000E-01  7.20000000E-01  7.20000000E-01  8.50000000E-01  8.50000000E-01
  7.20000000E-01  7.20000000E-01  7.20000000E-01  8.50000000E-01  7.20000000E-01
  7.20000000E-01  7.20000000E-01  8.50000000E-01  7.20000000E-01  8.50000000E-01
  8.50000000E-01  8.50000000E-01  7.20000000E-01  7.20000000E-01  8.50000000E-01
  7.20000000E-01  7.20000000E-01  8.50000000E-01  7.20000000E-01  8.50000000E-01
  8.50000000E-01  8.50000000E-01  7.20000000E-01  7.20000000E-01  7.20000000E-01
  7.20000000E-01  7.20000000E-01  8.50000000E-01  7.20000000E-01  7.20000000E-01
  7.20000000E-01  8.50000000E-01  7.20000000E-01  7.20000000E-01  8.50000000E-01
  8.50000000E-01  7.20000000E-01  7.20000000E-01  7.20000000E-01  8.50000000E-01
  7.20000000E-01  7.20000000E-01  7.20000000E-01  8.50000000E-01  7.20000000E-01
  8.50000000E-01  8.50000000E-01  8.50000000E-01  7.20000000E-01  7.20000000E-01
  8.50000000E-01  7.20000000E-01  7.20000000E-01  8.50000000E-01  7.20000000E-01
  8.50000000E-01  8.50000000E-01  8.50000000E-01  7.20000000E-01  7.20000000E-01
  7.20000000E-01  7.20000000E-01  7.20000000E-01  8.50000000E-01  7.20000000E-01
  7.20000000E-01  7.20000000E-01  8.50000000E-01  7.20000000E-01  7.20000000E-01
  8.50000000E-01  8.50000000E-01  7.20000000E-01  7.20000000E-01  7.20000000E-01
  8.50000000E-01  7.20000000E-01  7.20000000E-01  7.20000000E-01  8.50000000E-01
  7.20000000E-01  8.50000000E-01  8.50000000E-01  8.50000000E-01  7.20000000E-01
  7.20000000E-01  8.50000000E-01  7.20000000E-01  7.20000000E-01  8.50000000E-01
  7.20000000E-01  8.50000000E-01  8.50000000E-01  8.50000000E-01  7.20000000E-01
  7.20000000E-01  7.20000000E-01  7.20000000E-01  7.20000000E-01  8.50000000E-01
  7.20000000E-01  7.20000000E-01  7.20000000E-01  8.50000000E-01  7.20000000E-01
  7.20000000E-01  8.50000000E-01  8.50000000E-01  7.20000000E-01  7.20000000E-01
  7.20000000E-01  8.50000000E-01  7.20000000E-01  7.20000000E-01  7.20000000E-01
  8.50000000E-01  7.20000000E-01  8.50000000E-01  8.50000000E-01  8.50000000E-01
  7.20000000E-01  7.20000000E-01  8.50000000E-01  7.20000000E-01  7.20000000E-01
  8.50000000E-01  7.20000000E-01  8.50000000E-01  8.50000000E-01  8.50000000E-01
  7.20000000E-01  7.20000000E-01  7.20000000E-01  7.20000000E-01  7.20000000E-01
  8.50000000E-01  7.20000000E-01  7.20000000E-01  7.20000000E-01  8.50000000E-01
  7.20000000E-01  7.20000000E-01  8.50000000E-01  8.50000000E-01  7.20000000E-01
  7.20000000E-01  7.20000000E-01  8.50000000E-01  7.20000000E-01  7.20000000E-01
  7.20000000E-01  8.50000000E-01  7.20000000E-01  8.50000000E-01  8.50000000E-01
  8.50000000E-01  7.20000000E-01  7.20000000E-01  8.50000000E-01  7.20000000E-01
  7.20000000E-01  8.50000000E-01  7.20000000E-01  8.50000000E-01  8.50000000E-01
  8.50000000E-01  7.20000000E-01  7.20000000E-01  7.20000000E-01  7.20000000E-01
  7.20000000E-01  8.50000000E-01  7.20000000E-01  7.20000000E-01  7.20000000E-01
  8.50000000E-01  7.20000000E-01  7.20000000E-01  8.50000000E-01  8.50000000E-01
  7.20000000E-01  7.20000000E-01  7.20000000E-01  8.50000000E-01  7.20000000E-01
  7.20000000E-01  7.20000000E-01  8.50000000E-01  7.20000000E-01  8.50000000E-01
  8.50000000E-01  8.50000000E-01  7.20000000E-01  7.20000000E-01  8.50000000E-01
  7.20000000E-01  7.20000000E-01  8.50000000E-01  7.20000000E-01  8.50000000E-01
  8.50000000E-01  8.50000000E-01  7.20000000E-01  7.20000000E-01  7.20000000E-01
  7.20000000E-01  7.20000000E-01  8.50000000E-01  7.20000000E-01  7.20000000E-01
  7.20000000E-01  8.50000000E-01  7.20000000E-01  7.20000000E-01  8.50000000E-01
  8.50000000E-01  7.20000000E-01  7.20000000E-01  7.20000000E-01  8.50000000E-01
  7.20000000E-01  7.20000000E-01  7.20000000E-01  8.50000000E-01  7.20000000E-01
  8.50000000E-01  8.50000000E-01  8.50000000E-01  7.20000000E-01  7.20000000E-01
  8.50000000E-01  7.20000000E-01  7.20000000E-01  8.50000000E-01  7.20000000E-01
  8.50000000E-01  8.50000000E-01  8.50000000E-01  7.20000000E-01  7.20000000E-01
  7.20000000E-01  7.20000000E-01  7.20000000E-01  8.50000000E-01  7.20000000E-01
  7.20000000E-01  7.20000000E-01  8.50000000E-01  7.20000000E-01  7.20000000E-01
  8.50000000E-01  8.50000000E-01  7.20000000E-01  7.20000000E-01  7.20000000E-01
  8.50000000E-01  7.20000000E-01  7.20000000E-01  7.20000000E-01  8.50000000E-01
  7.20000000E-01  8.50000000E-01  8.50000000E-01  8.50000000E-01  7.20000000E-01
  7.20000000E-01  8.50000000E-01  7.20000000E-01  7.20000000E-01  8.50000000E-01
  7.20000000E-01  8.50000000E-01  8.50000000E-01  8.50000000E-01  7.20000000E-01
  7.20000000E-01  7.20000000E-01  7.20000000E-01  7.20000000E-01  8.50000000E-01
  7.20000000E-01  7.20000000E-01  7.20000000E-01  8.50000000E-01  7.20000000E-01
  7.20000000E-01  8.50000000E-01  8.50000000E-01  7.20000000E-01  7.20000000E-01
  7.20000000E-01  8.50000000E-01  7.20000000E-01  7.20000000E-01  7.20000000E-01
  8.50000000E-01  7.20000000E-01  8.50000000E-01  8.50000000E-01  8.50000000E-01
  7.20000000E-01  7.20000000E-01  8.50000000E-01  7.20000000E-01  7.20000000E-01
  8.50000000E-01  7.20000000E-01  8.50000000E-01  8.50000000E-01  8.50000000E-01
  7.20000000E-01  7.20000000E-01  7.20000000E-01  7.20000000E-01  7.20000000E-01
  8.50000000E-01  7.20000000E-01  7.20000000E-01  7.20000000E-01  8.50000000E-01
  7.20000000E-01  7.20000000E-01  8.50000000E-01  8.50000000E-01  7.20000000E-01
  7.20000000E-01  7.20000000E-01  8.50000000E-01  7.20000000E-01  7.20000000E-01
  7.20000000E-01  8.50000000E-01  7.20000000E-01  8.50000000E-01  8.50000000E-01
  8.50000000E-01  7.20000000E-01  7.20000000E-01  8.50000000E-01  7.20000000E-01
  7.20000000E-01  8.50000000E-01  7.20000000E-01  8.50000000E-01  8.50000000E-01
  8.50000000E-01  7.20000000E-01  7.20000000E-01  7.20000000E-01  7.20000000E-01
  7.20000000E-01  8.50000000E-01  7.20000000E-01  7.20000000E-01  7.20000000E-01
  8.50000000E-01  7.20000000E-01  7.20000000E-01  8.50000000E-01  8.50000000E-01
  7.20000000E-01  7.20000000E-01  7.20000000E-01  8.50000000E-01  7.20000000E-01
  7.20000000E-01  7.20000000E-01  8.50000000E-01  7.20000000E-01  8.50000000E-01
  8.50000000E-01  8.50000000E-01  7.20000000E-01  7.20000000E-01  8.50000000E-01
  7.20000000E-01  7.20000000E-01  8.50000000E-01  7.20000000E-01  8.50000000E-01
  8.50000000E-01  8.50000000E-01  7.20000000E-01  7.20000000E-01  7.20000000E-01
  7.20000000E-01  7.20000000E-01  8.50000000E-01  7.20000000E-01  7.20000000E-01
  7.20000000E-01  8.50000000E-01  7.20000000E-01  7.20000000E-01  8.50000000E-01
  8.50000000E-01  7.20000000E-01  7.20000000E-01  7.20000000E-01  8.50000000E-01
  7.20000000E-01  7.20000000E-01  7.20000000E-01  8.50000000E-01  7.20000000E-01
  8.50000000E-01  8.50000000E-01  8.50000000E-01  7.20000000E-01  7.20000000E-01
  8.50000000E-01  7.20000000E-01  7.20000000E-01  8.50000000E-01  7.20000000E-01
  8.50000000E-01  8.50000000E-01  8.50000000E-01  7.20000000E-01  7.20000000E-01
  7.20000000E-01  7.20000000E-01  7.20000000E-01  8.50000000E-01  7.20000000E-01
  7.20000000E-01  7.20000000E-01  8.50000000E-01  7.20000000E-01  7.20000000E-01
  8.50000000E-01  8.50000000E-01  7.20000000E-01  7.20000000E-01  7.20000000E-01
  8.50000000E-01  7.20000000E-01  7.20000000E-01  7.20000000E-01  8.50000000E-01
  7.20000000E-01  8.50000000E-01  8.50000000E-01  8.50000000E-01  7.20000000E-01
  7.20000000E-01  8.50000000E-01  7.20000000E-01  7.20000000E-01  8.50000000E-01
  7.20000000E-01  8.50000000E-01  8.50000000E-01  8.50000000E-01  7.20000000E-01
  7.20000000E-01  7.20000000E-01  7.20000000E-01  7.20000000E-01  8.50000000E-01
  7.20000000E-01  7.20000000E-01  7.20000000E-01  8.50000000E-01  7.20000000E-01
  7.20000000E-01  8.50000000E-01  8.50000000E-01  7.20000000E-01  7.20000000E-01
  7.20000000E-01  8.50000000E-01  7.20000000E-01  7.20000000E-01  7.20000000E-01
  8.50000000E-01  7.20000000E-01  8.50000000E-01  8.50000000E-01  8.50000000E-01
  7.20000000E-01  7.20000000E-01  8.50000000E-01  7.20000000E-01  7.20000000E-01
  8.50000000E-01  7.20000000E-01  8.50000000E-01  8.50000000E-01  8.50000000E-01
  7.20000000E-01  7.20000000E-01  7.20000000E-01  7.20000000E-01  7.20000000E-01
  8.50000000E-01  7.20000000E-01  7.20000000E-01  7.20000000E-01  8.50000000E-01
  7.20000000E-01  7.20000000E-01  8.50000000E-01  8.50000000E-01  7.20000000E-01
  7.20000000E-01  7.20000000E-01  8.50000000E-01  7.20000000E-01  7.20000000E-01
  7.20000000E-01  8.50000000E-01  7.20000000E-01  8.50000000E-01  8.50000000E-01
  8.50000000E-01  7.20000000E-01  7.20000000E-01  8.50000000E-01  7.20000000E-01
  7.20000000E-01  8.50000000E-01  7.20000000E-01  8.50000000E-01  8.50000000E-01
  8.50000000E-01  7.20000000E-01  7.20000000E-01  7.20000000E-01  7.20000000E-01
  7.20000000E-01  8.50000000E-01  7.20000000E-01  7.20000000E-01  7.20000000E-01
  8.50000000E-01  7.20000000E-01  7.20000000E-01  8.50000000E-01  8.50000000E-01
  7.20000000E-01  7.20000000E-01  7.20000000E-01  8.50000000E-01  7.20000000E-01
  7.20000000E-01  7.20000000E-01  8.50000000E-01  7.20000000E-01  8.50000000E-01
  8.50000000E-01  8.50000000E-01  7.20000000E-01  7.20000000E-01  8.50000000E-01
  7.20000000E-01  7.20000000E-01  8.50000000E-01  7.20000000E-01  8.50000000E-01
  8.50000000E-01  8.50000000E-01  7.20000000E-01  7.20000000E-01  7.20000000E-01
  7.20000000E-01  7.20000000E-01  8.50000000E-01  7.20000000E-01  7.20000000E-01
  7.20000000E-01  8.50000000E-01  7.20000000E-01  7.20000000E-01  8.50000000E-01
  8.50000000E-01  7.20000000E-01  7.20000000E-01  7.20000000E-01  8.50000000E-01
  7.20000000E-01  7.20000000E-01  7.20000000E-01  8.50000000E-01  7.20000000E-01
  8.50000000E-01  8.50000000E-01  8.50000000E-01  7.20000000E-01  7.20000000E-01
  8.50000000E-01  7.20000000E-01  7.20000000E-01  8.50000000E-01  7.20000000E-01
  8.50000000E-01  8.50000000E-01  8.50000000E-01  7.20000000E-01  7.20000000E-01
  7.20000000E-01  7.20000000E-01  7.20000000E-01  8.50000000E-01  7.20000000E-01
  7.20000000E-01  7.20000000E-01  8.50000000E-01  7.20000000E-01  7.20000000E-01
  8.50000000E-01  8.50000000E-01  7.20000000E-01  7.20000000E-01  7.20000000E-01
  8.50000000E-01  7.20000000E-01  7.20000000E-01  7.20000000E-01  8.50000000E-01
  7.20000000E-01  8.50000000E-01  8.50000000E-01  8.50000000E-01  7.20000000E-01
  7.20000000E-01  8.50000000E-01  7.20000000E-01  7.20000000E-01  8.50000000E-01
  7.20000000E-01  8.50000000E-01  8.50000000E-01  8.50000000E-01  7.20000000E-01
  7.20000000E-01  7.20000000E-01  7.20000000E-01  7.20000000E-01  8.50000000E-01
  7.20000000E-01  7.20000000E-01  7.20000000E-01  8.50000000E-01  7.20000000E-01
  7.20000000E-01  8.50000000E-01  8.50000000E-01  7.20000000E-01  7.20000000E-01
  7.20000000E-01  8.50000000E-01  7.20000000E-01  7.20000000E-01  7.20000000E-01
  8.50000000E-01  7.20000000E-01  8.50000000E-01  8.50000000E-01  8.50000000E-01
  7.20000000E-01  7.20000000E-01  8.50000000E-01  7.20000000E-01  7.20000000E-01
  8.50000000E-01  7.20000000E-01  8.50000000E-01  8.50000000E-01  8.50000000E-01
  7.20000000E-01  7.20000000E-01  7.20000000E-01  7.20000000E-01  7.20000000E-01
  8.50000000E-01  7.20000000E-01  7.20000000E-01  7.20000000E-01  8.50000000E-01
  7.20000000E-01  7.20000000E-01  8.50000000E-01  8.50000000E-01  7.20000000E-01
  7.20000000E-01  7.20000000E-01  8.50000000E-01  7.20000000E-01  7.20000000E-01
  7.20000000E-01  8.50000000E-01  7.20000000E-01  8.50000000E-01  8.50000000E-01
  8.50000000E-01  7.20000000E-01  7.20000000E-01  8.50000000E-01  7.20000000E-01
  7.20000000E-01  8.50000000E-01  7.20000000E-01  8.50000000E-01  8.50000000E-01
  8.50000000E-01  7.20000000E-01  7.20000000E-01  7.20000000E-01  7.20000000E-01
  7.20000000E-01  8.50000000E-01  7.20000000E-01  7.20000000E-01  7.20000000E-01
  8.50000000E-01  7.20000000E-01  7.20000000E-01  8.50000000E-01  8.50000000E-01
  7.20000000E-01  7.20000000E-01  7.20000000E-01  8.50000000E-01  7.20000000E-01
  7.20000000E-01  7.20000000E-01  8.50000000E-01  7.20000000E-01  8.50000000E-01
  8.50000000E-01  8.50000000E-01  7.20000000E-01  7.20000000E-01  8.50000000E-01
  7.20000000E-01  7.20000000E-01  8.50000000E-01  7.20000000E-01  8.50000000E-01
  8.50000000E-01  8.50000000E-01  7.20000000E-01  7.20000000E-01  7.20000000E-01
  7.20000000E-01  7.20000000E-01  8.50000000E-01  7.20000000E-01  7.20000000E-01
  7.20000000E-01  8.50000000E-01  7.20000000E-01  7.20000000E-01  8.50000000E-01
  8.50000000E-01  7.20000000E-01  7.20000000E-01  7.20000000E-01  8.50000000E-01
  7.20000000E-01  7.20000000E-01  7.20000000E-01  8.50000000E-01  7.20000000E-01
  8.50000000E-01  8.50000000E-01  8.50000000E-01  7.20000000E-01  7.20000000E-01
  8.50000000E-01  7.20000000E-01  7.20000000E-01  8.50000000E-01  7.20000000E-01
  8.50000000E-01  8.50000000E-01  8.50000000E-01  7.20000000E-01  7.20000000E-01
  7.20000000E-01  7.20000000E-01  7.20000000E-01  8.50000000E-01  7.20000000E-01
  7.20000000E-01  7.20000000E-01  8.50000000E-01  7.20000000E-01  7.20000000E-01
  8.50000000E-01  8.50000000E-01  7.20000000E-01  7.20000000E-01  7.20000000E-01
  8.50000000E-01  7.20000000E-01  7.20000000E-01  7.20000000E-01  8.50000000E-01
  7.20000000E-01  8.50000000E-01  8.50000000E-01  8.50000000E-01  7.20000000E-01
  7.20000000E-01  8.50000000E-01  7.20000000E-01  7.20000000E-01  8.50000000E-01
  7.20000000E-01  8.50000000E-01  8.50000000E-01  8.50000000E-01  7.20000000E-01
  7.20000000E-01  7.20000000E-01  7.20000000E-01  7.20000000E-01  8.50000000E-01
  7.20000000E-01  7.20000000E-01  7.20000000E-01  8.50000000E-01  7.20000000E-01
  7.20000000E-01  8.50000000E-01  8.50000000E-01  7.20000000E-01  7.20000000E-01
  7.20000000E-01  8.50000000E-01  7.20000000E-01  7.20000000E-01  7.20000000E-01
  8.50000000E-01  7.20000000E-01  8.50000000E-01  8.50000000E-01  8.50000000E-01
  7.20000000E-01  7.20000000E-01  8.50000000E-01  7.20000000E-01  7.20000000E-01
  8.50000000E-01  7.20000000E-01  8.50000000E-01  8.50000000E-01  8.50000000E-01
%FLAG IPOL                                                                      
%FORMAT(1I8)                                                                    
       0
