%VERSION  VERSION_STAMP = V0001.000  DATE = 12/08/25  12:59:11                  
%FLAG TITLE                                                                     
%FORMAT(20a4)                                                                   
default_name                                                                    
%FLAG POINTERS                                                                  
%FORMAT(10I8)                                                                   
    1944       2     756    1404    1512    2052    3456    3348       0       0
   10638      54    1404    2052    3348       2       2       2       2       0
       0       0       0       0       0       0       0       0      36       0
       0
%FLAG ATOM_NAME                                                                 
%FORMAT(20a4)                                                                   
C1  C2  C3  C4  C5  H6  C7  C8  C9  H10 C11 C12 H13 H14 C15 C16 C17 H18 C19 C20 
C21 H22 C23 H24 H25 H26 C27 C28 H29 C30 C31 H32 C33 H34 H35 H36 C1  C2  C3  C4  
C5  H6  C7  C8  C9  H10 C11 C12 H13 H14 C15 C16 C17 H18 C19 C20 C21 H22 C23 H24 
H25 H26 C27 C28 H29 C30 C31 H32 C33 H34 H35 H36 C1  C2  C3  C4  C5  H6  C7  C8  
C9  H10 C11 C12 H13 H14 C15 C16 C17 H18 C19 C20 C21 H22 C23 H24 H25 H26 C27 C28 
H29 C30 C31 H32 C33 H34 H35 H36 C1  C2  C3  C4  C5  H6  C7  C8  C9  H10 C11 C12 
H13 H14 C15 C16 C17 H18 C19 C20 C21 H22 C23 H24 H25 H26 C27 C28 H29 C30 C31 H32 
C33 H34 H35 H36 C1  C2  C3  C4  C5  H6  C7  C8  C9  H10 C11 C12 H13 H14 C15 C16 
C17 H18 C19 C20 C21 H22 C23 H24 H25 H26 C27 C28 H29 C30 C31 H32 C33 H34 H35 H36 
C1  C2  C3  C4  C5  H6  C7  C8  C9  H10 C11 C12 H13 H14 C15 C16 C17 H18 C19 C20 
C21 H22 C23 H24 H25 H26 C27 C28 H29 C30 C31 H32 C33 H34 H35 H36 C1  C2  C3  C4  
C5  H6  C7  C8  C9  H10 C11 C12 H13 H14 C15 C16 C17 H18 C19 C20 C21 H22 C23 H24 
H25 H26 C27 C28 H29 C30 C31 H32 C33 H34 H35 H36 C1  C2  C3  C4  C5  H6  C7  C8  
C9  H10 C11 C12 H13 H14 C15 C16 C17 H18 C19 C20 C21 H22 C23 H24 H25 H26 C27 C28 
H29 C30 C31 H32 C33 H34 H35 H36 C1  C2  C3  C4  C5  H6  C7  C8  C9  H10 C11 C12 
H13 H14 C15 C16 C17 H18 C19 C20 C21 H22 C23 H24 H25 H26 C27 C28 H29 C30 C31 H32 
C33 H34 H35 H36 C1  C2  C3  C4  C5  H6  C7  C8  C9  H10 C11 C12 H13 H14 C15 C16 
C17 H18 C19 C20 C21 H22 C23 H24 H25 H26 C27 C28 H29 C30 C31 H32 C33 H34 H35 H36 
C1  C2  C3  C4  C5  H6  C7  C8  C9  H10 C11 C12 H13 H14 C15 C16 C17 H18 C19 C20 
C21 H22 C23 H24 H25 H26 C27 C28 H29 C30 C31 H32 C33 H34 H35 H36 C1  C2  C3  C4  
C5  H6  C7  C8  C9  H10 C11 C12 H13 H14 C15 C16 C17 H18 C19 C20 C21 H22 C23 H24 
H25 H26 C27 C28 H29 C30 C31 H32 C33 H34 H35 H36 C1  C2  C3  C4  C5  H6  C7  C8  
C9  H10 C11 C12 H13 H14 C15 C16 C17 H18 C19 C20 C21 H22 C23 H24 H25 H26 C27 C28 
H29 C30 C31 H32 C33 H34 H35 H36 C1  C2  C3  C4  C5  H6  C7  C8  C9  H10 C11 C12 
H13 H14 C15 C16 C17 H18 C19 C20 C21 H22 C23 H24 H25 H26 C27 C28 H29 C30 C31 H32 
C33 H34 H35 H36 C1  C2  C3  C4  C5  H6  C7  C8  C9  H10 C11 C12 H13 H14 C15 C16 
C17 H18 C19 C20 C21 H22 C23 H24 H25 H26 C27 C28 H29 C30 C31 H32 C33 H34 H35 H36 
C1  C2  C3  C4  C5  H6  C7  C8  C9  H10 C11 C12 H13 H14 C15 C16 C17 H18 C19 C20 
C21 H22 C23 H24 H25 H26 C27 C28 H29 C30 C31 H32 C33 H34 H35 H36 C1  C2  C3  C4  
C5  H6  C7  C8  C9  H10 C11 C12 H13 H14 C15 C16 C17 H18 C19 C20 C21 H22 C23 H24 
H25 H26 C27 C28 H29 C30 C31 H32 C33 H34 H35 H36 C1  C2  C3  C4  C5  H6  C7  C8  
C9  H10 C11 C12 H13 H14 C15 C16 C17 H18 C19 C20 C21 H22 C23 H24 H25 H26 C27 C28 
H29 C30 C31 H32 C33 H34 H35 H36 C1  C2  C3  C4  C5  H6  C7  C8  C9  H10 C11 C12 
H13 H14 C15 C16 C17 H18 C19 C20 C21 H22 C23 H24 H25 H26 C27 C28 H29 C30 C31 H32 
C33 H34 H35 H36 C1  C2  C3  C4  C5  H6  C7  C8  C9  H10 C11 C12 H13 H14 C15 C16 
C17 H18 C19 C20 C21 H22 C23 H24 H25 H26 C27 C28 H29 C30 C31 H32 C33 H34 H35 H36 
C1  C2  C3  C4  C5  H6  C7  C8  C9  H10 C11 C12 H13 H14 C15 C16 C17 H18 C19 C20 
C21 H22 C23 H24 H25 H26 C27 C28 H29 C30 C31 H32 C33 H34 H35 H36 C1  C2  C3  C4  
C5  H6  C7  C8  C9  H10 C11 C12 H13 H14 C15 C16 C17 H18 C19 C20 C21 H22 C23 H24 
H25 H26 C27 C28 H29 C30 C31 H32 C33 H34 H35 H36 C1  C2  C3  C4  C5  H6  C7  C8  
C9  H10 C11 C12 H13 H14 C15 C16 C17 H18 C19 C20 C21 H22 C23 H24 H25 H26 C27 C28 
H29 C30 C31 H32 C33 H34 H35 H36 C1  C2  C3  C4  C5  H6  C7  C8  C9  H10 C11 C12 
H13 H14 C15 C16 C17 H18 C19 C20 C21 H22 C23 H24 H25 H26 C27 C28 H29 C30 C31 H32 
C33 H34 H35 H36 C1  C2  C3  C4  C5  H6  C7  C8  C9  H10 C11 C12 H13 H14 C15 C16 
C17 H18 C19 C20 C21 H22 C23 H24 H25 H26 C27 C28 H29 C30 C31 H32 C33 H34 H35 H36 
C1  C2  C3  C4  C5  H6  C7  C8  C9  H10 C11 C12 H13 H14 C15 C16 C17 H18 C19 C20 
C21 H22 C23 H24 H25 H26 C27 C28 H29 C30 C31 H32 C33 H34 H35 H36 C1  C2  C3  C4  
C5  H6  C7  C8  C9  H10 C11 C12 H13 H14 C15 C16 C17 H18 C19 C20 C21 H22 C23 H24 
H25 H26 C27 C28 H29 C30 C31 H32 C33 H34 H35 H36 C1  C2  C3  C4  C5  H6  C7  C8  
C9  H10 C11 C12 H13 H14 C15 C16 C17 H18 C19 C20 C21 H22 C23 H24 H25 H26 C27 C28 
H29 C30 C31 H32 C33 H34 H35 H36 C1  C2  C3  C4  C5  H6  C7  C8  C9  H10 C11 C12 
H13 H14 C15 C16 C17 H18 C19 C20 C21 H22 C23 H24 H25 H26 C27 C28 H29 C30 C31 H32 
C33 H34 H35 H36 C1  C2  C3  C4  C5  H6  C7  C8  C9  H10 C11 C12 H13 H14 C15 C16 
C17 H18 C19 C20 C21 H22 C23 H24 H25 H26 C27 C28 H29 C30 C31 H32 C33 H34 H35 H36 
C1  C2  C3  C4  C5  H6  C7  C8  C9  H10 C11 C12 H13 H14 C15 C16 C17 H18 C19 C20 
C21 H22 C23 H24 H25 H26 C27 C28 H29 C30 C31 H32 C33 H34 H35 H36 C1  C2  C3  C4  
C5  H6  C7  C8  C9  H10 C11 C12 H13 H14 C15 C16 C17 H18 C19 C20 C21 H22 C23 H24 
H25 H26 C27 C28 H29 C30 C31 H32 C33 H34 H35 H36 C1  C2  C3  C4  C5  H6  C7  C8  
C9  H10 C11 C12 H13 H14 C15 C16 C17 H18 C19 C20 C21 H22 C23 H24 H25 H26 C27 C28 
H29 C30 C31 H32 C33 H34 H35 H36 C1  C2  C3  C4  C5  H6  C7  C8  C9  H10 C11 C12 
H13 H14 C15 C16 C17 H18 C19 C20 C21 H22 C23 H24 H25 H26 C27 C28 H29 C30 C31 H32 
C33 H34 H35 H36 C1  C2  C3  C4  C5  H6  C7  C8  C9  H10 C11 C12 H13 H14 C15 C16 
C17 H18 C19 C20 C21 H22 C23 H24 H25 H26 C27 C28 H29 C30 C31 H32 C33 H34 H35 H36 
C1  C2  C3  C4  C5  H6  C7  C8  C9  H10 C11 C12 H13 H14 C15 C16 C17 H18 C19 C20 
C21 H22 C23 H24 H25 H26 C27 C28 H29 C30 C31 H32 C33 H34 H35 H36 C1  C2  C3  C4  
C5  H6  C7  C8  C9  H10 C11 C12 H13 H14 C15 C16 C17 H18 C19 C20 C21 H22 C23 H24 
H25 H26 C27 C28 H29 C30 C31 H32 C33 H34 H35 H36 C1  C2  C3  C4  C5  H6  C7  C8  
C9  H10 C11 C12 H13 H14 C15 C16 C17 H18 C19 C20 C21 H22 C23 H24 H25 H26 C27 C28 
H29 C30 C31 H32 C33 H34 H35 H36 C1  C2  C3  C4  C5  H6  C7  C8  C9  H10 C11 C12 
H13 H14 C15 C16 C17 H18 C19 C20 C21 H22 C23 H24 H25 H26 C27 C28 H29 C30 C31 H32 
C33 H34 H35 H36 C1  C2  C3  C4  C5  H6  C7  C8  C9  H10 C11 C12 H13 H14 C15 C16 
C17 H18 C19 C20 C21 H22 C23 H24 H25 H26 C27 C28 H29 C30 C31 H32 C33 H34 H35 H36 
C1  C2  C3  C4  C5  H6  C7  C8  C9  H10 C11 C12 H13 H14 C15 C16 C17 H18 C19 C20 
C21 H22 C23 H24 H25 H26 C27 C28 H29 C30 C31 H32 C33 H34 H35 H36 C1  C2  C3  C4  
C5  H6  C7  C8  C9  H10 C11 C12 H13 H14 C15 C16 C17 H18 C19 C20 C21 H22 C23 H24 
H25 H26 C27 C28 H29 C30 C31 H32 C33 H34 H35 H36 C1  C2  C3  C4  C5  H6  C7  C8  
C9  H10 C11 C12 H13 H14 C15 C16 C17 H18 C19 C20 C21 H22 C23 H24 H25 H26 C27 C28 
H29 C30 C31 H32 C33 H34 H35 H36 C1  C2  C3  C4  C5  H6  C7  C8  C9  H10 C11 C12 
H13 H14 C15 C16 C17 H18 C19 C20 C21 H22 C23 H24 H25 H26 C27 C28 H29 C30 C31 H32 
C33 H34 H35 H36 C1  C2  C3  C4  C5  H6  C7  C8  C9  H10 C11 C12 H13 H14 C15 C16 
C17 H18 C19 C20 C21 H22 C23 H24 H25 H26 C27 C28 H29 C30 C31 H32 C33 H34 H35 H36 
C1  C2  C3  C4  C5  H6  C7  C8  C9  H10 C11 C12 H13 H14 C15 C16 C17 H18 C19 C20 
C21 H22 C23 H24 H25 H26 C27 C28 H29 C30 C31 H32 C33 H34 H35 H36 C1  C2  C3  C4  
C5  H6  C7  C8  C9  H10 C11 C12 H13 H14 C15 C16 C17 H18 C19 C20 C21 H22 C23 H24 
H25 H26 C27 C28 H29 C30 C31 H32 C33 H34 H35 H36 C1  C2  C3  C4  C5  H6  C7  C8  
C9  H10 C11 C12 H13 H14 C15 C16 C17 H18 C19 C20 C21 H22 C23 H24 H25 H26 C27 C28 
H29 C30 C31 H32 C33 H34 H35 H36 C1  C2  C3  C4  C5  H6  C7  C8  C9  H10 C11 C12 
H13 H14 C15 C16 C17 H18 C19 C20 C21 H22 C23 H24 H25 H26 C27 C28 H29 C30 C31 H32 
C33 H34 H35 H36 C1  C2  C3  C4  C5  H6  C7  C8  C9  H10 C11 C12 H13 H14 C15 C16 
C17 H18 C19 C20 C21 H22 C23 H24 H25 H26 C27 C28 H29 C30 C31 H32 C33 H34 H35 H36 
C1  C2  C3  C4  C5  H6  C7  C8  C9  H10 C11 C12 H13 H14 C15 C16 C17 H18 C19 C20 
C21 H22 C23 H24 H25 H26 C27 C28 H29 C30 C31 H32 C33 H34 H35 H36 C1  C2  C3  C4  
C5  H6  C7  C8  C9  H10 C11 C12 H13 H14 C15 C16 C17 H18 C19 C20 C21 H22 C23 H24 
H25 H26 C27 C28 H29 C30 C31 H32 C33 H34 H35 H36 C1  C2  C3  C4  C5  H6  C7  C8  
C9  H10 C11 C12 H13 H14 C15 C16 C17 H18 C19 C20 C21 H22 C23 H24 H25 H26 C27 C28 
H29 C30 C31 H32 C33 H34 H35 H36 C1  C2  C3  C4  C5  H6  C7  C8  C9  H10 C11 C12 
H13 H14 C15 C16 C17 H18 C19 C20 C21 H22 C23 H24 H25 H26 C27 C28 H29 C30 C31 H32 
C33 H34 H35 H36 
%FLAG CHARGE                                                                    
%FORMAT(5E16.8)                                                                 
 -5.28446700E-01 -1.94978610E+00 -5.28446700E-01 -1.94978610E+00 -5.83113600E-01
  2.44178820E+00 -1.94978610E+00 -1.94978610E+00 -5.28446700E-01  2.46001050E+00
 -2.15023140E+00 -5.83113600E-01  2.44178820E+00  2.46001050E+00 -5.28446700E-01
 -1.94978610E+00 -2.29600980E+00  2.40534360E+00 -2.15023140E+00 -1.94978610E+00
 -5.83113600E-01  2.44178820E+00 -2.29600980E+00  2.40534360E+00  2.40534360E+00
  2.44178820E+00 -5.83113600E-01 -2.15023140E+00  2.40534360E+00 -2.15023140E+00
 -2.29600980E+00  2.40534360E+00 -2.29600980E+00  2.40534360E+00  2.40534360E+00
  2.40534360E+00 -5.28446700E-01 -1.94978610E+00 -5.28446700E-01 -1.94978610E+00
 -5.83113600E-01  2.44178820E+00 -1.94978610E+00 -1.94978610E+00 -5.28446700E-01
  2.46001050E+00 -2.15023140E+00 -5.83113600E-01  2.44178820E+00  2.46001050E+00
 -5.28446700E-01 -1.94978610E+00 -2.29600980E+00  2.40534360E+00 -2.15023140E+00
 -1.94978610E+00 -5.83113600E-01  2.44178820E+00 -2.29600980E+00  2.40534360E+00
  2.40534360E+00  2.44178820E+00 -5.83113600E-01 -2.15023140E+00  2.40534360E+00
 -2.15023140E+00 -2.29600980E+00  2.40534360E+00 -2.29600980E+00  2.40534360E+00
  2.40534360E+00  2.40534360E+00 -5.28446700E-01 -1.94978610E+00 -5.28446700E-01
 -1.94978610E+00 -5.83113600E-01  2.44178820E+00 -1.94978610E+00 -1.94978610E+00
 -5.28446700E-01  2.46001050E+00 -2.15023140E+00 -5.83113600E-01  2.44178820E+00
  2.46001050E+00 -5.28446700E-01 -1.94978610E+00 -2.29600980E+00  2.40534360E+00
 -2.15023140E+00 -1.94978610E+00 -5.83113600E-01  2.44178820E+00 -2.29600980E+00
  2.40534360E+00  2.40534360E+00  2.44178820E+00 -5.83113600E-01 -2.15023140E+00
  2.40534360E+00 -2.15023140E+00 -2.29600980E+00  2.40534360E+00 -2.29600980E+00
  2.40534360E+00  2.40534360E+00  2.40534360E+00 -5.28446700E-01 -1.94978610E+00
 -5.28446700E-01 -1.94978610E+00 -5.83113600E-01  2.44178820E+00 -1.94978610E+00
 -1.94978610E+00 -5.28446700E-01  2.46001050E+00 -2.15023140E+00 -5.83113600E-01
  2.44178820E+00  2.46001050E+00 -5.28446700E-01 -1.94978610E+00 -2.29600980E+00
  2.40534360E+00 -2.15023140E+00 -1.94978610E+00 -5.83113600E-01  2.44178820E+00
 -2.29600980E+00  2.40534360E+00  2.40534360E+00  2.44178820E+00 -5.83113600E-01
 -2.15023140E+00  2.40534360E+00 -2.15023140E+00 -2.29600980E+00  2.40534360E+00
 -2.29600980E+00  2.40534360E+00  2.40534360E+00  2.40534360E+00 -5.28446700E-01
 -1.94978610E+00 -5.28446700E-01 -1.94978610E+00 -5.83113600E-01  2.44178820E+00
 -1.94978610E+00 -1.94978610E+00 -5.28446700E-01  2.46001050E+00 -2.15023140E+00
 -5.83113600E-01  2.44178820E+00  2.46001050E+00 -5.28446700E-01 -1.94978610E+00
 -2.29600980E+00  2.40534360E+00 -2.15023140E+00 -1.94978610E+00 -5.83113600E-01
  2.44178820E+00 -2.29600980E+00  2.40534360E+00  2.40534360E+00  2.44178820E+00
 -5.83113600E-01 -2.15023140E+00  2.40534360E+00 -2.15023140E+00 -2.29600980E+00
  2.40534360E+00 -2.29600980E+00  2.40534360E+00  2.40534360E+00  2.40534360E+00
 -5.28446700E-01 -1.94978610E+00 -5.28446700E-01 -1.94978610E+00 -5.83113600E-01
  2.44178820E+00 -1.94978610E+00 -1.94978610E+00 -5.28446700E-01  2.46001050E+00
 -2.15023140E+00 -5.83113600E-01  2.44178820E+00  2.46001050E+00 -5.28446700E-01
 -1.94978610E+00 -2.29600980E+00  2.40534360E+00 -2.15023140E+00 -1.94978610E+00
 -5.83113600E-01  2.44178820E+00 -2.29600980E+00  2.40534360E+00  2.40534360E+00
  2.44178820E+00 -5.83113600E-01 -2.15023140E+00  2.40534360E+00 -2.15023140E+00
 -2.29600980E+00  2.40534360E+00 -2.29600980E+00  2.40534360E+00  2.40534360E+00
  2.40534360E+00 -5.28446700E-01 -1.94978610E+00 -5.28446700E-01 -1.94978610E+00
 -5.83113600E-01  2.44178820E+00 -1.94978610E+00 -1.94978610E+00 -5.28446700E-01
  2.46001050E+00 -2.15023140E+00 -5.83113600E-01  2.44178820E+00  2.46001050E+00
 -5.28446700E-01 -1.94978610E+00 -2.29600980E+00  2.40534360E+00 -2.15023140E+00
 -1.94978610E+00 -5.83113600E-01  2.44178820E+00 -2.29600980E+00  2.40534360E+00
  2.40534360E+00  2.44178820E+00 -5.83113600E-01 -2.15023140E+00  2.40534360E+00
 -2.15023140E+00 -2.29600980E+00  2.40534360E+00 -2.29600980E+00  2.40534360E+00
  2.40534360E+00  2.40534360E+00 -5.28446700E-01 -1.94978610E+00 -5.28446700E-01
 -1.94978610E+00 -5.83113600E-01  2.44178820E+00 -1.94978610E+00 -1.94978610E+00
 -5.28446700E-01  2.46001050E+00 -2.15023140E+00 -5.83113600E-01  2.44178820E+00
  2.46001050E+00 -5.28446700E-01 -1.94978610E+00 -2.29600980E+00  2.40534360E+00
 -2.15023140E+00 -1.94978610E+00 -5.83113600E-01  2.44178820E+00 -2.29600980E+00
  2.40534360E+00  2.40534360E+00  2.44178820E+00 -5.83113600E-01 -2.15023140E+00
  2.40534360E+00 -2.15023140E+00 -2.29600980E+00  2.40534360E+00 -2.29600980E+00
  2.40534360E+00  2.40534360E+00  2.40534360E+00 -5.28446700E-01 -1.94978610E+00
 -5.28446700E-01 -1.94978610E+00 -5.83113600E-01  2.44178820E+00 -1.94978610E+00
 -1.94978610E+00 -5.28446700E-01  2.46001050E+00 -2.15023140E+00 -5.83113600E-01
  2.44178820E+00  2.46001050E+00 -5.28446700E-01 -1.94978610E+00 -2.29600980E+00
  2.40534360E+00 -2.15023140E+00 -1.94978610E+00 -5.83113600E-01  2.44178820E+00
 -2.29600980E+00  2.40534360E+00  2.40534360E+00  2.44178820E+00 -5.83113600E-01
 -2.15023140E+00  2.40534360E+00 -2.15023140E+00 -2.29600980E+00  2.40534360E+00
 -2.29600980E+00  2.40534360E+00  2.40534360E+00  2.40534360E+00 -5.28446700E-01
 -1.94978610E+00 -5.28446700E-01 -1.94978610E+00 -5.83113600E-01  2.44178820E+00
 -1.94978610E+00 -1.94978610E+00 -5.28446700E-01  2.46001050E+00 -2.15023140E+00
 -5.83113600E-01  2.44178820E+00  2.46001050E+00 -5.28446700E-01 -1.94978610E+00
 -2.29600980E+00  2.40534360E+00 -2.15023140E+00 -1.94978610E+00 -5.83113600E-01
  2.44178820E+00 -2.29600980E+00  2.40534360E+00  2.40534360E+00  2.44178820E+00
 -5.83113600E-01 -2.15023140E+00  2.40534360E+00 -2.15023140E+00 -2.29600980E+00
  2.40534360E+00 -2.29600980E+00  2.40534360E+00  2.40534360E+00  2.40534360E+00
 -5.28446700E-01 -1.94978610E+00 -5.28446700E-01 -1.94978610E+00 -5.83113600E-01
  2.44178820E+00 -1.94978610E+00 -1.94978610E+00 -5.28446700E-01  2.46001050E+00
 -2.15023140E+00 -5.83113600E-01  2.44178820E+00  2.46001050E+00 -5.28446700E-01
 -1.94978610E+00 -2.29600980E+00  2.40534360E+00 -2.15023140E+00 -1.94978610E+00
 -5.83113600E-01  2.44178820E+00 -2.29600980E+00  2.40534360E+00  2.40534360E+00
  2.44178820E+00 -5.83113600E-01 -2.15023140E+00  2.40534360E+00 -2.15023140E+00
 -2.29600980E+00  2.40534360E+00 -2.29600980E+00  2.40534360E+00  2.40534360E+00
  2.40534360E+00 -5.28446700E-01 -1.94978610E+00 -5.28446700E-01 -1.94978610E+00
 -5.83113600E-01  2.44178820E+00 -1.94978610E+00 -1.94978610E+00 -5.28446700E-01
  2.46001050E+00 -2.15023140E+00 -5.83113600E-01  2.44178820E+00  2.46001050E+00
 -5.28446700E-01 -1.94978610E+00 -2.29600980E+00  2.40534360E+00 -2.15023140E+00
 -1.94978610E+00 -5.83113600E-01  2.44178820E+00 -2.29600980E+00  2.40534360E+00
  2.40534360E+00  2.44178820E+00 -5.83113600E-01 -2.15023140E+00  2.40534360E+00
 -2.15023140E+00 -2.29600980E+00  2.40534360E+00 -2.29600980E+00  2.40534360E+00
  2.40534360E+00  2.40534360E+00 -5.28446700E-01 -1.94978610E+00 -5.28446700E-01
 -1.94978610E+00 -5.83113600E-01  2.44178820E+00 -1.94978610E+00 -1.94978610E+00
 -5.28446700E-01  2.46001050E+00 -2.15023140E+00 -5.83113600E-01  2.44178820E+00
  2.46001050E+00 -5.28446700E-01 -1.94978610E+00 -2.29600980E+00  2.40534360E+00
 -2.15023140E+00 -1.94978610E+00 -5.83113600E-01  2.44178820E+00 -2.29600980E+00
  2.40534360E+00  2.40534360E+00  2.44178820E+00 -5.83113600E-01 -2.15023140E+00
  2.40534360E+00 -2.15023140E+00 -2.29600980E+00  2.40534360E+00 -2.29600980E+00
  2.40534360E+00  2.40534360E+00  2.40534360E+00 -5.28446700E-01 -1.94978610E+00
 -5.28446700E-01 -1.94978610E+00 -5.83113600E-01  2.44178820E+00 -1.94978610E+00
 -1.94978610E+00 -5.28446700E-01  2.46001050E+00 -2.15023140E+00 -5.83113600E-01
  2.44178820E+00  2.46001050E+00 -5.28446700E-01 -1.94978610E+00 -2.29600980E+00
  2.40534360E+00 -2.15023140E+00 -1.94978610E+00 -5.83113600E-01  2.44178820E+00
 -2.29600980E+00  2.40534360E+00  2.40534360E+00  2.44178820E+00 -5.83113600E-01
 -2.15023140E+00  2.40534360E+00 -2.15023140E+00 -2.29600980E+00  2.40534360E+00
 -2.29600980E+00  2.40534360E+00  2.40534360E+00  2.40534360E+00 -5.28446700E-01
 -1.94978610E+00 -5.28446700E-01 -1.94978610E+00 -5.83113600E-01  2.44178820E+00
 -1.94978610E+00 -1.94978610E+00 -5.28446700E-01  2.46001050E+00 -2.15023140E+00
 -5.83113600E-01  2.44178820E+00  2.46001050E+00 -5.28446700E-01 -1.94978610E+00
 -2.29600980E+00  2.40534360E+00 -2.15023140E+00 -1.94978610E+00 -5.83113600E-01
  2.44178820E+00 -2.29600980E+00  2.40534360E+00  2.40534360E+00  2.44178820E+00
 -5.83113600E-01 -2.15023140E+00  2.40534360E+00 -2.15023140E+00 -2.29600980E+00
  2.40534360E+00 -2.29600980E+00  2.40534360E+00  2.40534360E+00  2.40534360E+00
 -5.28446700E-01 -1.94978610E+00 -5.28446700E-01 -1.94978610E+00 -5.83113600E-01
  2.44178820E+00 -1.94978610E+00 -1.94978610E+00 -5.28446700E-01  2.46001050E+00
 -2.15023140E+00 -5.83113600E-01  2.44178820E+00  2.46001050E+00 -5.28446700E-01
 -1.94978610E+00 -2.29600980E+00  2.40534360E+00 -2.15023140E+00 -1.94978610E+00
 -5.83113600E-01  2.44178820E+00 -2.29600980E+00  2.40534360E+00  2.40534360E+00
  2.44178820E+00 -5.83113600E-01 -2.15023140E+00  2.40534360E+00 -2.15023140E+00
 -2.29600980E+00  2.40534360E+00 -2.29600980E+00  2.40534360E+00  2.40534360E+00
  2.40534360E+00 -5.28446700E-01 -1.94978610E+00 -5.28446700E-01 -1.94978610E+00
 -5.83113600E-01  2.44178820E+00 -1.94978610E+00 -1.94978610E+00 -5.28446700E-01
  2.46001050E+00 -2.15023140E+00 -5.83113600E-01  2.44178820E+00  2.46001050E+00
 -5.28446700E-01 -1.94978610E+00 -2.29600980E+00  2.40534360E+00 -2.15023140E+00
 -1.94978610E+00 -5.83113600E-01  2.44178820E+00 -2.29600980E+00  2.40534360E+00
  2.40534360E+00  2.44178820E+00 -5.83113600E-01 -2.15023140E+00  2.40534360E+00
 -2.15023140E+00 -2.29600980E+00  2.40534360E+00 -2.29600980E+00  2.40534360E+00
  2.40534360E+00  2.40534360E+00 -5.28446700E-01 -1.94978610E+00 -5.28446700E-01
 -1.94978610E+00 -5.83113600E-01  2.44178820E+00 -1.94978610E+00 -1.94978610E+00
 -5.28446700E-01  2.46001050E+00 -2.15023140E+00 -5.83113600E-01  2.44178820E+00
  2.46001050E+00 -5.28446700E-01 -1.94978610E+00 -2.29600980E+00  2.40534360E+00
 -2.15023140E+00 -1.94978610E+00 -5.83113600E-01  2.44178820E+00 -2.29600980E+00
  2.40534360E+00  2.40534360E+00  2.44178820E+00 -5.83113600E-01 -2.15023140E+00
  2.40534360E+00 -2.15023140E+00 -2.29600980E+00  2.40534360E+00 -2.29600980E+00
  2.40534360E+00  2.40534360E+00  2.40534360E+00 -5.28446700E-01 -1.94978610E+00
 -5.28446700E-01 -1.94978610E+00 -5.83113600E-01  2.44178820E+00 -1.94978610E+00
 -1.94978610E+00 -5.28446700E-01  2.46001050E+00 -2.15023140E+00 -5.83113600E-01
  2.44178820E+00  2.46001050E+00 -5.28446700E-01 -1.94978610E+00 -2.29600980E+00
  2.40534360E+00 -2.15023140E+00 -1.94978610E+00 -5.83113600E-01  2.44178820E+00
 -2.29600980E+00  2.40534360E+00  2.40534360E+00  2.44178820E+00 -5.83113600E-01
 -2.15023140E+00  2.40534360E+00 -2.15023140E+00 -2.29600980E+00  2.40534360E+00
 -2.29600980E+00  2.40534360E+00  2.40534360E+00  2.40534360E+00 -5.28446700E-01
 -1.94978610E+00 -5.28446700E-01 -1.94978610E+00 -5.83113600E-01  2.44178820E+00
 -1.94978610E+00 -1.94978610E+00 -5.28446700E-01  2.46001050E+00 -2.15023140E+00
 -5.83113600E-01  2.44178820E+00  2.46001050E+00 -5.28446700E-01 -1.94978610E+00
 -2.29600980E+00  2.40534360E+00 -2.15023140E+00 -1.94978610E+00 -5.83113600E-01
  2.44178820E+00 -2.29600980E+00  2.40534360E+00  2.40534360E+00  2.44178820E+00
 -5.83113600E-01 -2.15023140E+00  2.40534360E+00 -2.15023140E+00 -2.29600980E+00
  2.40534360E+00 -2.29600980E+00  2.40534360E+00  2.40534360E+00  2.40534360E+00
 -5.28446700E-01 -1.94978610E+00 -5.28446700E-01 -1.94978610E+00 -5.83113600E-01
  2.44178820E+00 -1.94978610E+00 -1.94978610E+00 -5.28446700E-01  2.46001050E+00
 -2.15023140E+00 -5.83113600E-01  2.44178820E+00  2.46001050E+00 -5.28446700E-01
 -1.94978610E+00 -2.29600980E+00  2.40534360E+00 -2.15023140E+00 -1.94978610E+00
 -5.83113600E-01  2.44178820E+00 -2.29600980E+00  2.40534360E+00  2.40534360E+00
  2.44178820E+00 -5.83113600E-01 -2.15023140E+00  2.40534360E+00 -2.15023140E+00
 -2.29600980E+00  2.40534360E+00 -2.29600980E+00  2.40534360E+00  2.40534360E+00
  2.40534360E+00 -5.28446700E-01 -1.94978610E+00 -5.28446700E-01 -1.94978610E+00
 -5.83113600E-01  2.44178820E+00 -1.94978610E+00 -1.94978610E+00 -5.28446700E-01
  2.46001050E+00 -2.15023140E+00 -5.83113600E-01  2.44178820E+00  2.46001050E+00
 -5.28446700E-01 -1.94978610E+00 -2.29600980E+00  2.40534360E+00 -2.15023140E+00
 -1.94978610E+00 -5.83113600E-01  2.44178820E+00 -2.29600980E+00  2.40534360E+00
  2.40534360E+00  2.44178820E+00 -5.83113600E-01 -2.15023140E+00  2.40534360E+00
 -2.15023140E+00 -2.29600980E+00  2.40534360E+00 -2.29600980E+00  2.40534360E+00
  2.40534360E+00  2.40534360E+00 -5.28446700E-01 -1.94978610E+00 -5.28446700E-01
 -1.94978610E+00 -5.83113600E-01  2.44178820E+00 -1.94978610E+00 -1.94978610E+00
 -5.28446700E-01  2.46001050E+00 -2.15023140E+00 -5.83113600E-01  2.44178820E+00
  2.46001050E+00 -5.28446700E-01 -1.94978610E+00 -2.29600980E+00  2.40534360E+00
 -2.15023140E+00 -1.94978610E+00 -5.83113600E-01  2.44178820E+00 -2.29600980E+00
  2.40534360E+00  2.40534360E+00  2.44178820E+00 -5.83113600E-01 -2.15023140E+00
  2.40534360E+00 -2.15023140E+00 -2.29600980E+00  2.40534360E+00 -2.29600980E+00
  2.40534360E+00  2.40534360E+00  2.40534360E+00 -5.28446700E-01 -1.94978610E+00
 -5.28446700E-01 -1.94978610E+00 -5.83113600E-01  2.44178820E+00 -1.94978610E+00
 -1.94978610E+00 -5.28446700E-01  2.46001050E+00 -2.15023140E+00 -5.83113600E-01
  2.44178820E+00  2.46001050E+00 -5.28446700E-01 -1.94978610E+00 -2.29600980E+00
  2.40534360E+00 -2.15023140E+00 -1.94978610E+00 -5.83113600E-01  2.44178820E+00
 -2.29600980E+00  2.40534360E+00  2.40534360E+00  2.44178820E+00 -5.83113600E-01
 -2.15023140E+00  2.40534360E+00 -2.15023140E+00 -2.29600980E+00  2.40534360E+00
 -2.29600980E+00  2.40534360E+00  2.40534360E+00  2.40534360E+00 -5.28446700E-01
 -1.94978610E+00 -5.28446700E-01 -1.94978610E+00 -5.83113600E-01  2.44178820E+00
 -1.94978610E+00 -1.94978610E+00 -5.28446700E-01  2.46001050E+00 -2.15023140E+00
 -5.83113600E-01  2.44178820E+00  2.46001050E+00 -5.28446700E-01 -1.94978610E+00
 -2.29600980E+00  2.40534360E+00 -2.15023140E+00 -1.94978610E+00 -5.83113600E-01
  2.44178820E+00 -2.29600980E+00  2.40534360E+00  2.40534360E+00  2.44178820E+00
 -5.83113600E-01 -2.15023140E+00  2.40534360E+00 -2.15023140E+00 -2.29600980E+00
  2.40534360E+00 -2.29600980E+00  2.40534360E+00  2.40534360E+00  2.40534360E+00
 -5.28446700E-01 -1.94978610E+00 -5.28446700E-01 -1.94978610E+00 -5.83113600E-01
  2.44178820E+00 -1.94978610E+00 -1.94978610E+00 -5.28446700E-01  2.46001050E+00
 -2.15023140E+00 -5.83113600E-01  2.44178820E+00  2.46001050E+00 -5.28446700E-01
 -1.94978610E+00 -2.29600980E+00  2.40534360E+00 -2.15023140E+00 -1.94978610E+00
 -5.83113600E-01  2.44178820E+00 -2.29600980E+00  2.40534360E+00  2.40534360E+00
  2.44178820E+00 -5.83113600E-01 -2.15023140E+00  2.40534360E+00 -2.15023140E+00
 -2.29600980E+00  2.40534360E+00 -2.29600980E+00  2.40534360E+00  2.40534360E+00
  2.40534360E+00 -5.28446700E-01 -1.94978610E+00 -5.28446700E-01 -1.94978610E+00
 -5.83113600E-01  2.44178820E+00 -1.94978610E+00 -1.94978610E+00 -5.28446700E-01
  2.46001050E+00 -2.15023140E+00 -5.83113600E-01  2.44178820E+00  2.46001050E+00
 -5.28446700E-01 -1.94978610E+00 -2.29600980E+00  2.40534360E+00 -2.15023140E+00
 -1.94978610E+00 -5.83113600E-01  2.44178820E+00 -2.29600980E+00  2.40534360E+00
  2.40534360E+00  2.44178820E+00 -5.83113600E-01 -2.15023140E+00  2.40534360E+00
 -2.15023140E+00 -2.29600980E+00  2.40534360E+00 -2.29600980E+00  2.40534360E+00
  2.40534360E+00  2.40534360E+00 -5.28446700E-01 -1.94978610E+00 -5.28446700E-01
 -1.94978610E+00 -5.83113600E-01  2.44178820E+00 -1.94978610E+00 -1.94978610E+00
 -5.28446700E-01  2.46001050E+00 -2.15023140E+00 -5.83113600E-01  2.44178820E+00
  2.46001050E+00 -5.28446700E-01 -1.94978610E+00 -2.29600980E+00  2.40534360E+00
 -2.15023140E+00 -1.94978610E+00 -5.83113600E-01  2.44178820E+00 -2.29600980E+00
  2.40534360E+00  2.40534360E+00  2.44178820E+00 -5.83113600E-01 -2.15023140E+00
  2.40534360E+00 -2.15023140E+00 -2.29600980E+00  2.40534360E+00 -2.29600980E+00
  2.40534360E+00  2.40534360E+00  2.40534360E+00 -5.28446700E-01 -1.94978610E+00
 -5.28446700E-01 -1.94978610E+00 -5.83113600E-01  2.44178820E+00 -1.94978610E+00
 -1.94978610E+00 -5.28446700E-01  2.46001050E+00 -2.15023140E+00 -5.83113600E-01
  2.44178820E+00  2.46001050E+00 -5.28446700E-01 -1.94978610E+00 -2.29600980E+00
  2.40534360E+00 -2.15023140E+00 -1.94978610E+00 -5.83113600E-01  2.44178820E+00
 -2.29600980E+00  2.40534360E+00  2.40534360E+00  2.44178820E+00 -5.83113600E-01
 -2.15023140E+00  2.40534360E+00 -2.15023140E+00 -2.29600980E+00  2.40534360E+00
 -2.29600980E+00  2.40534360E+00  2.40534360E+00  2.40534360E+00 -5.28446700E-01
 -1.94978610E+00 -5.28446700E-01 -1.94978610E+00 -5.83113600E-01  2.44178820E+00
 -1.94978610E+00 -1.94978610E+00 -5.28446700E-01  2.46001050E+00 -2.15023140E+00
 -5.83113600E-01  2.44178820E+00  2.46001050E+00 -5.28446700E-01 -1.94978610E+00
 -2.29600980E+00  2.40534360E+00 -2.15023140E+00 -1.94978610E+00 -5.83113600E-01
  2.44178820E+00 -2.29600980E+00  2.40534360E+00  2.40534360E+00  2.44178820E+00
 -5.83113600E-01 -2.15023140E+00  2.40534360E+00 -2.15023140E+00 -2.29600980E+00
  2.40534360E+00 -2.29600980E+00  2.40534360E+00  2.40534360E+00  2.40534360E+00
 -5.28446700E-01 -1.94978610E+00 -5.28446700E-01 -1.94978610E+00 -5.83113600E-01
  2.44178820E+00 -1.94978610E+00 -1.94978610E+00 -5.28446700E-01  2.46001050E+00
 -2.15023140E+00 -5.83113600E-01  2.44178820E+00  2.46001050E+00 -5.28446700E-01
 -1.94978610E+00 -2.29600980E+00  2.40534360E+00 -2.15023140E+00 -1.94978610E+00
 -5.83113600E-01  2.44178820E+00 -2.29600980E+00  2.40534360E+00  2.40534360E+00
  2.44178820E+00 -5.83113600E-01 -2.15023140E+00  2.40534360E+00 -2.15023140E+00
 -2.29600980E+00  2.40534360E+00 -2.29600980E+00  2.40534360E+00  2.40534360E+00
  2.40534360E+00 -5.28446700E-01 -1.94978610E+00 -5.28446700E-01 -1.94978610E+00
 -5.83113600E-01  2.44178820E+00 -1.94978610E+00 -1.94978610E+00 -5.28446700E-01
  2.46001050E+00 -2.15023140E+00 -5.83113600E-01  2.44178820E+00  2.46001050E+00
 -5.28446700E-01 -1.94978610E+00 -2.29600980E+00  2.40534360E+00 -2.15023140E+00
 -1.94978610E+00 -5.83113600E-01  2.44178820E+00 -2.29600980E+00  2.40534360E+00
  2.40534360E+00  2.44178820E+00 -5.83113600E-01 -2.15023140E+00  2.40534360E+00
 -2.15023140E+00 -2.29600980E+00  2.40534360E+00 -2.29600980E+00  2.40534360E+00
  2.40534360E+00  2.40534360E+00 -5.28446700E-01 -1.94978610E+00 -5.28446700E-01
 -1.94978610E+00 -5.83113600E-01  2.44178820E+00 -1.94978610E+00 -1.94978610E+00
 -5.28446700E-01  2.46001050E+00 -2.15023140E+00 -5.83113600E-01  2.44178820E+00
  2.46001050E+00 -5.28446700E-01 -1.94978610E+00 -2.29600980E+00  2.40534360E+00
 -2.15023140E+00 -1.94978610E+00 -5.83113600E-01  2.44178820E+00 -2.29600980E+00
  2.40534360E+00  2.40534360E+00  2.44178820E+00 -5.83113600E-01 -2.15023140E+00
  2.40534360E+00 -2.15023140E+00 -2.29600980E+00  2.40534360E+00 -2.29600980E+00
  2.40534360E+00  2.40534360E+00  2.40534360E+00 -5.28446700E-01 -1.94978610E+00
 -5.28446700E-01 -1.94978610E+00 -5.83113600E-01  2.44178820E+00 -1.94978610E+00
 -1.94978610E+00 -5.28446700E-01  2.46001050E+00 -2.15023140E+00 -5.83113600E-01
  2.44178820E+00  2.46001050E+00 -5.28446700E-01 -1.94978610E+00 -2.29600980E+00
  2.40534360E+00 -2.15023140E+00 -1.94978610E+00 -5.83113600E-01  2.44178820E+00
 -2.29600980E+00  2.40534360E+00  2.40534360E+00  2.44178820E+00 -5.83113600E-01
 -2.15023140E+00  2.40534360E+00 -2.15023140E+00 -2.29600980E+00  2.40534360E+00
 -2.29600980E+00  2.40534360E+00  2.40534360E+00  2.40534360E+00 -5.28446700E-01
 -1.94978610E+00 -5.28446700E-01 -1.94978610E+00 -5.83113600E-01  2.44178820E+00
 -1.94978610E+00 -1.94978610E+00 -5.28446700E-01  2.46001050E+00 -2.15023140E+00
 -5.83113600E-01  2.44178820E+00  2.46001050E+00 -5.28446700E-01 -1.94978610E+00
 -2.29600980E+00  2.40534360E+00 -2.15023140E+00 -1.94978610E+00 -5.83113600E-01
  2.44178820E+00 -2.29600980E+00  2.40534360E+00  2.40534360E+00  2.44178820E+00
 -5.83113600E-01 -2.15023140E+00  2.40534360E+00 -2.15023140E+00 -2.29600980E+00
  2.40534360E+00 -2.29600980E+00  2.40534360E+00  2.40534360E+00  2.40534360E+00
 -5.28446700E-01 -1.94978610E+00 -5.28446700E-01 -1.94978610E+00 -5.83113600E-01
  2.44178820E+00 -1.94978610E+00 -1.94978610E+00 -5.28446700E-01  2.46001050E+00
 -2.15023140E+00 -5.83113600E-01  2.44178820E+00  2.46001050E+00 -5.28446700E-01
 -1.94978610E+00 -2.29600980E+00  2.40534360E+00 -2.15023140E+00 -1.94978610E+00
 -5.83113600E-01  2.44178820E+00 -2.29600980E+00  2.40534360E+00  2.40534360E+00
  2.44178820E+00 -5.83113600E-01 -2.15023140E+00  2.40534360E+00 -2.15023140E+00
 -2.29600980E+00  2.40534360E+00 -2.29600980E+00  2.40534360E+00  2.40534360E+00
  2.40534360E+00 -5.28446700E-01 -1.94978610E+00 -5.28446700E-01 -1.94978610E+00
 -5.83113600E-01  2.44178820E+00 -1.94978610E+00 -1.94978610E+00 -5.28446700E-01
  2.46001050E+00 -2.15023140E+00 -5.83113600E-01  2.44178820E+00  2.46001050E+00
 -5.28446700E-01 -1.94978610E+00 -2.29600980E+00  2.40534360E+00 -2.15023140E+00
 -1.94978610E+00 -5.83113600E-01  2.44178820E+00 -2.29600980E+00  2.40534360E+00
  2.40534360E+00  2.44178820E+00 -5.83113600E-01 -2.15023140E+00  2.40534360E+00
 -2.15023140E+00 -2.29600980E+00  2.40534360E+00 -2.29600980E+00  2.40534360E+00
  2.40534360E+00  2.40534360E+00 -5.28446700E-01 -1.94978610E+00 -5.28446700E-01
 -1.94978610E+00 -5.83113600E-01  2.44178820E+00 -1.94978610E+00 -1.94978610E+00
 -5.28446700E-01  2.46001050E+00 -2.15023140E+00 -5.83113600E-01  2.44178820E+00
  2.46001050E+00 -5.28446700E-01 -1.94978610E+00 -2.29600980E+00  2.40534360E+00
 -2.15023140E+00 -1.94978610E+00 -5.83113600E-01  2.44178820E+00 -2.29600980E+00
  2.40534360E+00  2.40534360E+00  2.44178820E+00 -5.83113600E-01 -2.15023140E+00
  2.40534360E+00 -2.15023140E+00 -2.29600980E+00  2.40534360E+00 -2.29600980E+00
  2.40534360E+00  2.40534360E+00  2.40534360E+00 -5.28446700E-01 -1.94978610E+00
 -5.28446700E-01 -1.94978610E+00 -5.83113600E-01  2.44178820E+00 -1.94978610E+00
 -1.94978610E+00 -5.28446700E-01  2.46001050E+00 -2.15023140E+00 -5.83113600E-01
  2.44178820E+00  2.46001050E+00 -5.28446700E-01 -1.94978610E+00 -2.29600980E+00
  2.40534360E+00 -2.15023140E+00 -1.94978610E+00 -5.83113600E-01  2.44178820E+00
 -2.29600980E+00  2.40534360E+00  2.40534360E+00  2.44178820E+00 -5.83113600E-01
 -2.15023140E+00  2.40534360E+00 -2.15023140E+00 -2.29600980E+00  2.40534360E+00
 -2.29600980E+00  2.40534360E+00  2.40534360E+00  2.40534360E+00 -5.28446700E-01
 -1.94978610E+00 -5.28446700E-01 -1.94978610E+00 -5.83113600E-01  2.44178820E+00
 -1.94978610E+00 -1.94978610E+00 -5.28446700E-01  2.46001050E+00 -2.15023140E+00
 -5.83113600E-01  2.44178820E+00  2.46001050E+00 -5.28446700E-01 -1.94978610E+00
 -2.29600980E+00  2.40534360E+00 -2.15023140E+00 -1.94978610E+00 -5.83113600E-01
  2.44178820E+00 -2.29600980E+00  2.40534360E+00  2.40534360E+00  2.44178820E+00
 -5.83113600E-01 -2.15023140E+00  2.40534360E+00 -2.15023140E+00 -2.29600980E+00
  2.40534360E+00 -2.29600980E+00  2.40534360E+00  2.40534360E+00  2.40534360E+00
 -5.28446700E-01 -1.94978610E+00 -5.28446700E-01 -1.94978610E+00 -5.83113600E-01
  2.44178820E+00 -1.94978610E+00 -1.94978610E+00 -5.28446700E-01  2.46001050E+00
 -2.15023140E+00 -5.83113600E-01  2.44178820E+00  2.46001050E+00 -5.28446700E-01
 -1.94978610E+00 -2.29600980E+00  2.40534360E+00 -2.15023140E+00 -1.94978610E+00
 -5.83113600E-01  2.44178820E+00 -2.29600980E+00  2.40534360E+00  2.40534360E+00
  2.44178820E+00 -5.83113600E-01 -2.15023140E+00  2.40534360E+00 -2.15023140E+00
 -2.29600980E+00  2.40534360E+00 -2.29600980E+00  2.40534360E+00  2.40534360E+00
  2.40534360E+00 -5.28446700E-01 -1.94978610E+00 -5.28446700E-01 -1.94978610E+00
 -5.83113600E-01  2.44178820E+00 -1.94978610E+00 -1.94978610E+00 -5.28446700E-01
  2.46001050E+00 -2.15023140E+00 -5.83113600E-01  2.44178820E+00  2.46001050E+00
 -5.28446700E-01 -1.94978610E+00 -2.29600980E+00  2.40534360E+00 -2.15023140E+00
 -1.94978610E+00 -5.83113600E-01  2.44178820E+00 -2.29600980E+00  2.40534360E+00
  2.40534360E+00  2.44178820E+00 -5.83113600E-01 -2.15023140E+00  2.40534360E+00
 -2.15023140E+00 -2.29600980E+00  2.40534360E+00 -2.29600980E+00  2.40534360E+00
  2.40534360E+00  2.40534360E+00 -5.28446700E-01 -1.94978610E+00 -5.28446700E-01
 -1.94978610E+00 -5.83113600E-01  2.44178820E+00 -1.94978610E+00 -1.94978610E+00
 -5.28446700E-01  2.46001050E+00 -2.15023140E+00 -5.83113600E-01  2.44178820E+00
  2.46001050E+00 -5.28446700E-01 -1.94978610E+00 -2.29600980E+00  2.40534360E+00
 -2.15023140E+00 -1.94978610E+00 -5.83113600E-01  2.44178820E+00 -2.29600980E+00
  2.40534360E+00  2.40534360E+00  2.44178820E+00 -5.83113600E-01 -2.15023140E+00
  2.40534360E+00 -2.15023140E+00 -2.29600980E+00  2.40534360E+00 -2.29600980E+00
  2.40534360E+00  2.40534360E+00  2.40534360E+00 -5.28446700E-01 -1.94978610E+00
 -5.28446700E-01 -1.94978610E+00 -5.83113600E-01  2.44178820E+00 -1.94978610E+00
 -1.94978610E+00 -5.28446700E-01  2.46001050E+00 -2.15023140E+00 -5.83113600E-01
  2.44178820E+00  2.46001050E+00 -5.28446700E-01 -1.94978610E+00 -2.29600980E+00
  2.40534360E+00 -2.15023140E+00 -1.94978610E+00 -5.83113600E-01  2.44178820E+00
 -2.29600980E+00  2.40534360E+00  2.40534360E+00  2.44178820E+00 -5.83113600E-01
 -2.15023140E+00  2.40534360E+00 -2.15023140E+00 -2.29600980E+00  2.40534360E+00
 -2.29600980E+00  2.40534360E+00  2.40534360E+00  2.40534360E+00 -5.28446700E-01
 -1.94978610E+00 -5.28446700E-01 -1.94978610E+00 -5.83113600E-01  2.44178820E+00
 -1.94978610E+00 -1.94978610E+00 -5.28446700E-01  2.46001050E+00 -2.15023140E+00
 -5.83113600E-01  2.44178820E+00  2.46001050E+00 -5.28446700E-01 -1.94978610E+00
 -2.29600980E+00  2.40534360E+00 -2.15023140E+00 -1.94978610E+00 -5.83113600E-01
  2.44178820E+00 -2.29600980E+00  2.40534360E+00  2.40534360E+00  2.44178820E+00
 -5.83113600E-01 -2.15023140E+00  2.40534360E+00 -2.15023140E+00 -2.29600980E+00
  2.40534360E+00 -2.29600980E+00  2.40534360E+00  2.40534360E+00  2.40534360E+00
 -5.28446700E-01 -1.94978610E+00 -5.28446700E-01 -1.94978610E+00 -5.83113600E-01
  2.44178820E+00 -1.94978610E+00 -1.94978610E+00 -5.28446700E-01  2.46001050E+00
 -2.15023140E+00 -5.83113600E-01  2.44178820E+00  2.46001050E+00 -5.28446700E-01
 -1.94978610E+00 -2.29600980E+00  2.40534360E+00 -2.15023140E+00 -1.94978610E+00
 -5.83113600E-01  2.44178820E+00 -2.29600980E+00  2.40534360E+00  2.40534360E+00
  2.44178820E+00 -5.83113600E-01 -2.15023140E+00  2.40534360E+00 -2.15023140E+00
 -2.29600980E+00  2.40534360E+00 -2.29600980E+00  2.40534360E+00  2.40534360E+00
  2.40534360E+00 -5.28446700E-01 -1.94978610E+00 -5.28446700E-01 -1.94978610E+00
 -5.83113600E-01  2.44178820E+00 -1.94978610E+00 -1.94978610E+00 -5.28446700E-01
  2.46001050E+00 -2.15023140E+00 -5.83113600E-01  2.44178820E+00  2.46001050E+00
 -5.28446700E-01 -1.94978610E+00 -2.29600980E+00  2.40534360E+00 -2.15023140E+00
 -1.94978610E+00 -5.83113600E-01  2.44178820E+00 -2.29600980E+00  2.40534360E+00
  2.40534360E+00  2.44178820E+00 -5.83113600E-01 -2.15023140E+00  2.40534360E+00
 -2.15023140E+00 -2.29600980E+00  2.40534360E+00 -2.29600980E+00  2.40534360E+00
  2.40534360E+00  2.40534360E+00 -5.28446700E-01 -1.94978610E+00 -5.28446700E-01
 -1.94978610E+00 -5.83113600E-01  2.44178820E+00 -1.94978610E+00 -1.94978610E+00
 -5.28446700E-01  2.46001050E+00 -2.15023140E+00 -5.83113600E-01  2.44178820E+00
  2.46001050E+00 -5.28446700E-01 -1.94978610E+00 -2.29600980E+00  2.40534360E+00
 -2.15023140E+00 -1.94978610E+00 -5.83113600E-01  2.44178820E+00 -2.29600980E+00
  2.40534360E+00  2.40534360E+00  2.44178820E+00 -5.83113600E-01 -2.15023140E+00
  2.40534360E+00 -2.15023140E+00 -2.29600980E+00  2.40534360E+00 -2.29600980E+00
  2.40534360E+00  2.40534360E+00  2.40534360E+00 -5.28446700E-01 -1.94978610E+00
 -5.28446700E-01 -1.94978610E+00 -5.83113600E-01  2.44178820E+00 -1.94978610E+00
 -1.94978610E+00 -5.28446700E-01  2.46001050E+00 -2.15023140E+00 -5.83113600E-01
  2.44178820E+00  2.46001050E+00 -5.28446700E-01 -1.94978610E+00 -2.29600980E+00
  2.40534360E+00 -2.15023140E+00 -1.94978610E+00 -5.83113600E-01  2.44178820E+00
 -2.29600980E+00  2.40534360E+00  2.40534360E+00  2.44178820E+00 -5.83113600E-01
 -2.15023140E+00  2.40534360E+00 -2.15023140E+00 -2.29600980E+00  2.40534360E+00
 -2.29600980E+00  2.40534360E+00  2.40534360E+00  2.40534360E+00 -5.28446700E-01
 -1.94978610E+00 -5.28446700E-01 -1.94978610E+00 -5.83113600E-01  2.44178820E+00
 -1.94978610E+00 -1.94978610E+00 -5.28446700E-01  2.46001050E+00 -2.15023140E+00
 -5.83113600E-01  2.44178820E+00  2.46001050E+00 -5.28446700E-01 -1.94978610E+00
 -2.29600980E+00  2.40534360E+00 -2.15023140E+00 -1.94978610E+00 -5.83113600E-01
  2.44178820E+00 -2.29600980E+00  2.40534360E+00  2.40534360E+00  2.44178820E+00
 -5.83113600E-01 -2.15023140E+00  2.40534360E+00 -2.15023140E+00 -2.29600980E+00
  2.40534360E+00 -2.29600980E+00  2.40534360E+00  2.40534360E+00  2.40534360E+00
 -5.28446700E-01 -1.94978610E+00 -5.28446700E-01 -1.94978610E+00 -5.83113600E-01
  2.44178820E+00 -1.94978610E+00 -1.94978610E+00 -5.28446700E-01  2.46001050E+00
 -2.15023140E+00 -5.83113600E-01  2.44178820E+00  2.46001050E+00 -5.28446700E-01
 -1.94978610E+00 -2.29600980E+00  2.40534360E+00 -2.15023140E+00 -1.94978610E+00
 -5.83113600E-01  2.44178820E+00 -2.29600980E+00  2.40534360E+00  2.40534360E+00
  2.44178820E+00 -5.83113600E-01 -2.15023140E+00  2.40534360E+00 -2.15023140E+00
 -2.29600980E+00  2.40534360E+00 -2.29600980E+00  2.40534360E+00  2.40534360E+00
  2.40534360E+00 -5.28446700E-01 -1.94978610E+00 -5.28446700E-01 -1.94978610E+00
 -5.83113600E-01  2.44178820E+00 -1.94978610E+00 -1.94978610E+00 -5.28446700E-01
  2.46001050E+00 -2.15023140E+00 -5.83113600E-01  2.44178820E+00  2.46001050E+00
 -5.28446700E-01 -1.94978610E+00 -2.29600980E+00  2.40534360E+00 -2.15023140E+00
 -1.94978610E+00 -5.83113600E-01  2.44178820E+00 -2.29600980E+00  2.40534360E+00
  2.40534360E+00  2.44178820E+00 -5.83113600E-01 -2.15023140E+00  2.40534360E+00
 -2.15023140E+00 -2.29600980E+00  2.40534360E+00 -2.29600980E+00  2.40534360E+00
  2.40534360E+00  2.40534360E+00 -5.28446700E-01 -1.94978610E+00 -5.28446700E-01
 -1.94978610E+00 -5.83113600E-01  2.44178820E+00 -1.94978610E+00 -1.94978610E+00
 -5.28446700E-01  2.46001050E+00 -2.15023140E+00 -5.83113600E-01  2.44178820E+00
  2.46001050E+00 -5.28446700E-01 -1.94978610E+00 -2.29600980E+00  2.40534360E+00
 -2.15023140E+00 -1.94978610E+00 -5.83113600E-01  2.44178820E+00 -2.29600980E+00
  2.40534360E+00  2.40534360E+00  2.44178820E+00 -5.83113600E-01 -2.15023140E+00
  2.40534360E+00 -2.15023140E+00 -2.29600980E+00  2.40534360E+00 -2.29600980E+00
  2.40534360E+00  2.40534360E+00  2.40534360E+00 -5.28446700E-01 -1.94978610E+00
 -5.28446700E-01 -1.94978610E+00 -5.83113600E-01  2.44178820E+00 -1.94978610E+00
 -1.94978610E+00 -5.28446700E-01  2.46001050E+00 -2.15023140E+00 -5.83113600E-01
  2.44178820E+00  2.46001050E+00 -5.28446700E-01 -1.94978610E+00 -2.29600980E+00
  2.40534360E+00 -2.15023140E+00 -1.94978610E+00 -5.83113600E-01  2.44178820E+00
 -2.29600980E+00  2.40534360E+00  2.40534360E+00  2.44178820E+00 -5.83113600E-01
 -2.15023140E+00  2.40534360E+00 -2.15023140E+00 -2.29600980E+00  2.40534360E+00
 -2.29600980E+00  2.40534360E+00  2.40534360E+00  2.40534360E+00
%FLAG ATOMIC_NUMBER                                                             
%FORMAT(10I8)                                                                   
       6       6       6       6       6       1       6       6       6       1
       6       6       1       1       6       6       6       1       6       6
       6       1       6       1       1       1       6       6       1       6
       6       1       6       1       1       1       6       6       6       6
       6       1       6       6       6       1       6       6       1       1
       6       6       6       1       6       6       6       1       6       1
       1       1       6       6       1       6       6       1       6       1
       1       1       6       6       6       6       6       1       6       6
       6       1       6       6       1       1       6       6       6       1
       6       6       6       1       6       1       1       1       6       6
       1       6       6       1       6       1       1       1       6       6
       6       6       6       1       6       6       6       1       6       6
       1       1       6       6       6       1       6       6       6       1
       6       1       1       1       6       6       1       6       6       1
       6       1       1       1       6       6       6       6       6       1
       6       6       6       1       6       6       1       1       6       6
       6       1       6       6       6       1       6       1       1       1
       6       6       1       6       6       1       6       1       1       1
       6       6       6       6       6       1       6       6       6       1
       6       6       1       1       6       6       6       1       6       6
       6       1       6       1       1       1       6       6       1       6
       6       1       6       1       1       1       6       6       6       6
       6       1       6       6       6       1       6       6       1       1
       6       6       6       1       6       6       6       1       6       1
       1       1       6       6       1       6       6       1       6       1
       1       1       6       6       6       6       6       1       6       6
       6       1       6       6       1       1       6       6       6       1
       6       6       6       1       6       1       1       1       6       6
       1       6       6       1       6       1       1       1       6       6
       6       6       6       1       6       6       6       1       6       6
       1       1       6       6       6       1       6       6       6       1
       6       1       1       1       6       6       1       6       6       1
       6       1       1       1       6       6       6       6       6       1
       6       6       6       1       6       6       1       1       6       6
       6       1       6       6       6       1       6       1       1       1
       6       6       1       6       6       1       6       1       1       1
       6       6       6       6       6       1       6       6       6       1
       6       6       1       1       6       6       6       1       6       6
       6       1       6       1       1       1       6       6       1       6
       6       1       6       1       1       1       6       6       6       6
       6       1       6       6       6       1       6       6       1       1
       6       6       6       1       6       6       6       1       6       1
       1       1       6       6       1       6       6       1       6       1
       1       1       6       6       6       6       6       1       6       6
       6       1       6       6       1       1       6       6       6       1
       6       6       6       1       6       1       1       1       6       6
       1       6       6       1       6       1       1       1       6       6
       6       6       6       1       6       6       6       1       6       6
       1       1       6       6       6       1       6       6       6       1
       6       1       1       1       6       6       1       6       6       1
       6       1       1       1       6       6       6       6       6       1
       6       6       6       1       6       6       1       1       6       6
       6       1       6       6       6       1       6       1       1       1
       6       6       1       6       6       1       6       1       1       1
       6       6       6       6       6       1       6       6       6       1
       6       6       1       1       6       6       6       1       6       6
       6       1       6       1       1       1       6       6       1       6
       6       1       6       1       1       1       6       6       6       6
       6       1       6       6       6       1       6       6       1       1
       6       6       6       1       6       6       6       1       6       1
       1       1       6       6       1       6       6       1       6       1
       1       1       6       6       6       6       6       1       6       6
       6       1       6       6       1       1       6       6       6       1
       6       6       6       1       6       1       1       1       6       6
       1       6       6       1       6       1       1       1       6       6
       6       6       6       1       6       6       6       1       6       6
       1       1       6       6       6       1       6       6       6       1
       6       1       1       1       6       6       1       6       6       1
       6       1       1       1       6       6       6       6       6       1
       6       6       6       1       6       6       1       1       6       6
       6       1       6       6       6       1       6       1       1       1
       6       6       1       6       6       1       6       1       1       1
       6       6       6       6       6       1       6       6       6       1
       6       6       1       1       6       6       6       1       6       6
       6       1       6       1       1       1       6       6       1       6
       6       1       6       1       1       1       6       6       6       6
       6       1       6       6       6       1       6       6       1       1
       6       6       6       1       6       6       6       1       6       1
       1       1       6       6       1       6       6       1       6       1
       1       1       6       6       6       6       6       1       6       6
       6       1       6       6       1       1       6       6       6       1
       6       6       6       1       6       1       1       1       6       6
       1       6       6       1       6       1       1       1       6       6
       6       6       6       1       6       6       6       1       6       6
       1       1       6       6       6       1       6       6       6       1
       6       1       1       1       6       6       1       6       6       1
       6       1       1       1       6       6       6       6       6       1
       6       6       6       1       6       6       1       1       6       6
       6       1       6       6       6       1       6       1       1       1
       6       6       1       6       6       1       6       1       1       1
       6       6       6       6       6       1       6       6       6       1
       6       6       1       1       6       6       6       1       6       6
       6       1       6       1       1       1       6       6       1       6
       6       1       6       1       1       1       6       6       6       6
       6       1       6       6       6       1       6       6       1       1
       6       6       6       1       6       6       6       1       6       1
       1       1       6       6       1       6       6       1       6       1
       1       1       6       6       6       6       6       1       6       6
       6       1       6       6       1       1       6       6       6       1
       6       6       6       1       6       1       1       1       6       6
       1       6       6       1       6       1       1       1       6       6
       6       6       6       1       6       6       6       1       6       6
       1       1       6       6       6       1       6       6       6       1
       6       1       1       1       6       6       1       6       6       1
       6       1       1       1       6       6       6       6       6       1
       6       6       6       1       6       6       1       1       6       6
       6       1       6       6       6       1       6       1       1       1
       6       6       1       6       6       1       6       1       1       1
       6       6       6       6       6       1       6       6       6       1
       6       6       1       1       6       6       6       1       6       6
       6       1       6       1       1       1       6       6       1       6
       6       1       6       1       1       1       6       6       6       6
       6       1       6       6       6       1       6       6       1       1
       6       6       6       1       6       6       6       1       6       1
       1       1       6       6       1       6       6       1       6       1
       1       1       6       6       6       6       6       1       6       6
       6       1       6       6       1       1       6       6       6       1
       6       6       6       1       6       1       1       1       6       6
       1       6       6       1       6       1       1       1       6       6
       6       6       6       1       6       6       6       1       6       6
       1       1       6       6       6       1       6       6       6       1
       6       1       1       1       6       6       1       6       6       1
       6       1       1       1       6       6       6       6       6       1
       6       6       6       1       6       6       1       1       6       6
       6       1       6       6       6       1       6       1       1       1
       6       6       1       6       6       1       6       1       1       1
       6       6       6       6       6       1       6       6       6       1
       6       6       1       1       6       6       6       1       6       6
       6       1       6       1       1       1       6       6       1       6
       6       1       6       1       1       1       6       6       6       6
       6       1       6       6       6       1       6       6       1       1
       6       6       6       1       6       6       6       1       6       1
       1       1       6       6       1       6       6       1       6       1
       1       1       6       6       6       6       6       1       6       6
       6       1       6       6       1       1       6       6       6       1
       6       6       6       1       6       1       1       1       6       6
       1       6       6       1       6       1       1       1       6       6
       6       6       6       1       6       6       6       1       6       6
       1       1       6       6       6       1       6       6       6       1
       6       1       1       1       6       6       1       6       6       1
       6       1       1       1       6       6       6       6       6       1
       6       6       6       1       6       6       1       1       6       6
       6       1       6       6       6       1       6       1       1       1
       6       6       1       6       6       1       6       1       1       1
       6       6       6       6       6       1       6       6       6       1
       6       6       1       1       6       6       6       1       6       6
       6       1       6       1       1       1       6       6       1       6
       6       1       6       1       1       1       6       6       6       6
       6       1       6       6       6       1       6       6       1       1
       6       6       6       1       6       6       6       1       6       1
       1       1       6       6       1       6       6       1       6       1
       1       1       6       6       6       6       6       1       6       6
       6       1       6       6       1       1       6       6       6       1
       6       6       6       1       6       1       1       1       6       6
       1       6       6       1       6       1       1       1       6       6
       6       6       6       1       6       6       6       1       6       6
       1       1       6       6       6       1       6       6       6       1
       6       1       1       1       6       6       1       6       6       1
       6       1       1       1       6       6       6       6       6       1
       6       6       6       1       6       6       1       1       6       6
       6       1       6       6       6       1       6       1       1       1
       6       6       1       6       6       1       6       1       1       1
       6       6       6       6       6       1       6       6       6       1
       6       6       1       1       6       6       6       1       6       6
       6       1       6       1       1       1       6       6       1       6
       6       1       6       1       1       1       6       6       6       6
       6       1       6       6       6       1       6       6       1       1
       6       6       6       1       6       6       6       1       6       1
       1       1       6       6       1       6       6       1       6       1
       1       1       6       6       6       6       6       1       6       6
       6       1       6       6       1       1       6       6       6       1
       6       6       6       1       6       1       1       1       6       6
       1       6       6       1       6       1       1       1       6       6
       6       6       6       1       6       6       6       1       6       6
       1       1       6       6       6       1       6       6       6       1
       6       1       1       1       6       6       1       6       6       1
       6       1       1       1       6       6       6       6       6       1
       6       6       6       1       6       6       1       1       6       6
       6       1       6       6       6       1       6       1       1       1
       6       6       1       6       6       1       6       1       1       1
       6       6       6       6       6       1       6       6       6       1
       6       6       1       1       6       6       6       1       6       6
       6       1       6       1       1       1       6       6       1       6
       6       1       6       1       1       1       6       6       6       6
       6       1       6       6       6       1       6       6       1       1
       6       6       6       1       6       6       6       1       6       1
       1       1       6       6       1       6       6       1       6       1
       1       1       6       6       6       6       6       1       6       6
       6       1       6       6       1       1       6       6       6       1
       6       6       6       1       6       1       1       1       6       6
       1       6       6       1       6       1       1       1       6       6
       6       6       6       1       6       6       6       1       6       6
       1       1       6       6       6       1       6       6       6       1
       6       1       1       1       6       6       1       6       6       1
       6       1       1       1
%FLAG MASS                                                                      
%FORMAT(5E16.8)                                                                 
  1.20100000E+01  1.20100000E+01  1.20100000E+01  1.20100000E+01  1.20100000E+01
  1.00800000E+00  1.20100000E+01  1.20100000E+01  1.20100000E+01  1.00800000E+00
  1.20100000E+01  1.20100000E+01  1.00800000E+00  1.00800000E+00  1.20100000E+01
  1.20100000E+01  1.20100000E+01  1.00800000E+00  1.20100000E+01  1.20100000E+01
  1.20100000E+01  1.00800000E+00  1.20100000E+01  1.00800000E+00  1.00800000E+00
  1.00800000E+00  1.20100000E+01  1.20100000E+01  1.00800000E+00  1.20100000E+01
  1.20100000E+01  1.00800000E+00  1.20100000E+01  1.00800000E+00  1.00800000E+00
  1.00800000E+00  1.20100000E+01  1.20100000E+01  1.20100000E+01  1.20100000E+01
  1.20100000E+01  1.00800000E+00  1.20100000E+01  1.20100000E+01  1.20100000E+01
  1.00800000E+00  1.20100000E+01  1.20100000E+01  1.00800000E+00  1.00800000E+00
  1.20100000E+01  1.20100000E+01  1.20100000E+01  1.00800000E+00  1.20100000E+01
  1.20100000E+01  1.20100000E+01  1.00800000E+00  1.20100000E+01  1.00800000E+00
  1.00800000E+00  1.00800000E+00  1.20100000E+01  1.20100000E+01  1.00800000E+00
  1.20100000E+01  1.20100000E+01  1.00800000E+00  1.20100000E+01  1.00800000E+00
  1.00800000E+00  1.00800000E+00  1.20100000E+01  1.20100000E+01  1.20100000E+01
  1.20100000E+01  1.20100000E+01  1.00800000E+00  1.20100000E+01  1.20100000E+01
  1.20100000E+01  1.00800000E+00  1.20100000E+01  1.20100000E+01  1.00800000E+00
  1.00800000E+00  1.20100000E+01  1.20100000E+01  1.20100000E+01  1.00800000E+00
  1.20100000E+01  1.20100000E+01  1.20100000E+01  1.00800000E+00  1.20100000E+01
  1.00800000E+00  1.00800000E+00  1.00800000E+00  1.20100000E+01  1.20100000E+01
  1.00800000E+00  1.20100000E+01  1.20100000E+01  1.00800000E+00  1.20100000E+01
  1.00800000E+00  1.00800000E+00  1.00800000E+00  1.20100000E+01  1.20100000E+01
  1.20100000E+01  1.20100000E+01  1.20100000E+01  1.00800000E+00  1.20100000E+01
  1.20100000E+01  1.20100000E+01  1.00800000E+00  1.20100000E+01  1.20100000E+01
  1.00800000E+00  1.00800000E+00  1.20100000E+01  1.20100000E+01  1.20100000E+01
  1.00800000E+00  1.20100000E+01  1.20100000E+01  1.20100000E+01  1.00800000E+00
  1.20100000E+01  1.00800000E+00  1.00800000E+00  1.00800000E+00  1.20100000E+01
  1.20100000E+01  1.00800000E+00  1.20100000E+01  1.20100000E+01  1.00800000E+00
  1.20100000E+01  1.00800000E+00  1.00800000E+00  1.00800000E+00  1.20100000E+01
  1.20100000E+01  1.20100000E+01  1.20100000E+01  1.20100000E+01  1.00800000E+00
  1.20100000E+01  1.20100000E+01  1.20100000E+01  1.00800000E+00  1.20100000E+01
  1.20100000E+01  1.00800000E+00  1.00800000E+00  1.20100000E+01  1.20100000E+01
  1.20100000E+01  1.00800000E+00  1.20100000E+01  1.20100000E+01  1.20100000E+01
  1.00800000E+00  1.20100000E+01  1.00800000E+00  1.00800000E+00  1.00800000E+00
  1.20100000E+01  1.20100000E+01  1.00800000E+00  1.20100000E+01  1.20100000E+01
  1.00800000E+00  1.20100000E+01  1.00800000E+00  1.00800000E+00  1.00800000E+00
  1.20100000E+01  1.20100000E+01  1.20100000E+01  1.20100000E+01  1.20100000E+01
  1.00800000E+00  1.20100000E+01  1.20100000E+01  1.20100000E+01  1.00800000E+00
  1.20100000E+01  1.20100000E+01  1.00800000E+00  1.00800000E+00  1.20100000E+01
  1.20100000E+01  1.20100000E+01  1.00800000E+00  1.20100000E+01  1.20100000E+01
  1.20100000E+01  1.00800000E+00  1.20100000E+01  1.00800000E+00  1.00800000E+00
  1.00800000E+00  1.20100000E+01  1.20100000E+01  1.00800000E+00  1.20100000E+01
  1.20100000E+01  1.00800000E+00  1.20100000E+01  1.00800000E+00  1.00800000E+00
  1.00800000E+00  1.20100000E+01  1.20100000E+01  1.20100000E+01  1.20100000E+01
  1.20100000E+01  1.00800000E+00  1.20100000E+01  1.20100000E+01  1.20100000E+01
  1.00800000E+00  1.20100000E+01  1.20100000E+01  1.00800000E+00  1.00800000E+00
  1.20100000E+01  1.20100000E+01  1.20100000E+01  1.00800000E+00  1.20100000E+01
  1.20100000E+01  1.20100000E+01  1.00800000E+00  1.20100000E+01  1.00800000E+00
  1.00800000E+00  1.00800000E+00  1.20100000E+01  1.20100000E+01  1.00800000E+00
  1.20100000E+01  1.20100000E+01  1.00800000E+00  1.20100000E+01  1.00800000E+00
  1.00800000E+00  1.00800000E+00  1.20100000E+01  1.20100000E+01  1.20100000E+01
  1.20100000E+01  1.20100000E+01  1.00800000E+00  1.20100000E+01  1.20100000E+01
  1.20100000E+01  1.00800000E+00  1.20100000E+01  1.20100000E+01  1.00800000E+00
  1.00800000E+00  1.20100000E+01  1.20100000E+01  1.20100000E+01  1.00800000E+00
  1.20100000E+01  1.20100000E+01  1.20100000E+01  1.00800000E+00  1.20100000E+01
  1.00800000E+00  1.00800000E+00  1.00800000E+00  1.20100000E+01  1.20100000E+01
  1.00800000E+00  1.20100000E+01  1.20100000E+01  1.00800000E+00  1.20100000E+01
  1.00800000E+00  1.00800000E+00  1.00800000E+00  1.20100000E+01  1.20100000E+01
  1.20100000E+01  1.20100000E+01  1.20100000E+01  1.00800000E+00  1.20100000E+01
  1.20100000E+01  1.20100000E+01  1.00800000E+00  1.20100000E+01  1.20100000E+01
  1.00800000E+00  1.00800000E+00  1.20100000E+01  1.20100000E+01  1.20100000E+01
  1.00800000E+00  1.20100000E+01  1.20100000E+01  1.20100000E+01  1.00800000E+00
  1.20100000E+01  1.00800000E+00  1.00800000E+00  1.00800000E+00  1.20100000E+01
  1.20100000E+01  1.00800000E+00  1.20100000E+01  1.20100000E+01  1.00800000E+00
  1.20100000E+01  1.00800000E+00  1.00800000E+00  1.00800000E+00  1.20100000E+01
  1.20100000E+01  1.20100000E+01  1.20100000E+01  1.20100000E+01  1.00800000E+00
  1.20100000E+01  1.20100000E+01  1.20100000E+01  1.00800000E+00  1.20100000E+01
  1.20100000E+01  1.00800000E+00  1.00800000E+00  1.20100000E+01  1.20100000E+01
  1.20100000E+01  1.00800000E+00  1.20100000E+01  1.20100000E+01  1.20100000E+01
  1.00800000E+00  1.20100000E+01  1.00800000E+00  1.00800000E+00  1.00800000E+00
  1.20100000E+01  1.20100000E+01  1.00800000E+00  1.20100000E+01  1.20100000E+01
  1.00800000E+00  1.20100000E+01  1.00800000E+00  1.00800000E+00  1.00800000E+00
  1.20100000E+01  1.20100000E+01  1.20100000E+01  1.20100000E+01  1.20100000E+01
  1.00800000E+00  1.20100000E+01  1.20100000E+01  1.20100000E+01  1.00800000E+00
  1.20100000E+01  1.20100000E+01  1.00800000E+00  1.00800000E+00  1.20100000E+01
  1.20100000E+01  1.20100000E+01  1.00800000E+00  1.20100000E+01  1.20100000E+01
  1.20100000E+01  1.00800000E+00  1.20100000E+01  1.00800000E+00  1.00800000E+00
  1.00800000E+00  1.20100000E+01  1.20100000E+01  1.00800000E+00  1.20100000E+01
  1.20100000E+01  1.00800000E+00  1.20100000E+01  1.00800000E+00  1.00800000E+00
  1.00800000E+00  1.20100000E+01  1.20100000E+01  1.20100000E+01  1.20100000E+01
  1.20100000E+01  1.00800000E+00  1.20100000E+01  1.20100000E+01  1.20100000E+01
  1.00800000E+00  1.20100000E+01  1.20100000E+01  1.00800000E+00  1.00800000E+00
  1.20100000E+01  1.20100000E+01  1.20100000E+01  1.00800000E+00  1.20100000E+01
  1.20100000E+01  1.20100000E+01  1.00800000E+00  1.20100000E+01  1.00800000E+00
  1.00800000E+00  1.00800000E+00  1.20100000E+01  1.20100000E+01  1.00800000E+00
  1.20100000E+01  1.20100000E+01  1.00800000E+00  1.20100000E+01  1.00800000E+00
  1.00800000E+00  1.00800000E+00  1.20100000E+01  1.20100000E+01  1.20100000E+01
  1.20100000E+01  1.20100000E+01  1.00800000E+00  1.20100000E+01  1.20100000E+01
  1.20100000E+01  1.00800000E+00  1.20100000E+01  1.20100000E+01  1.00800000E+00
  1.00800000E+00  1.20100000E+01  1.20100000E+01  1.20100000E+01  1.00800000E+00
  1.20100000E+01  1.20100000E+01  1.20100000E+01  1.00800000E+00  1.20100000E+01
  1.00800000E+00  1.00800000E+00  1.00800000E+00  1.20100000E+01  1.20100000E+01
  1.00800000E+00  1.20100000E+01  1.20100000E+01  1.00800000E+00  1.20100000E+01
  1.00800000E+00  1.00800000E+00  1.00800000E+00  1.20100000E+01  1.20100000E+01
  1.20100000E+01  1.20100000E+01  1.20100000E+01  1.00800000E+00  1.20100000E+01
  1.20100000E+01  1.20100000E+01  1.00800000E+00  1.20100000E+01  1.20100000E+01
  1.00800000E+00  1.00800000E+00  1.20100000E+01  1.20100000E+01  1.20100000E+01
  1.00800000E+00  1.20100000E+01  1.20100000E+01  1.20100000E+01  1.00800000E+00
  1.20100000E+01  1.00800000E+00  1.00800000E+00  1.00800000E+00  1.20100000E+01
  1.20100000E+01  1.00800000E+00  1.20100000E+01  1.20100000E+01  1.00800000E+00
  1.20100000E+01  1.00800000E+00  1.00800000E+00  1.00800000E+00  1.20100000E+01
  1.20100000E+01  1.20100000E+01  1.20100000E+01  1.20100000E+01  1.00800000E+00
  1.20100000E+01  1.20100000E+01  1.20100000E+01  1.00800000E+00  1.20100000E+01
  1.20100000E+01  1.00800000E+00  1.00800000E+00  1.20100000E+01  1.20100000E+01
  1.20100000E+01  1.00800000E+00  1.20100000E+01  1.20100000E+01  1.20100000E+01
  1.00800000E+00  1.20100000E+01  1.00800000E+00  1.00800000E+00  1.00800000E+00
  1.20100000E+01  1.20100000E+01  1.00800000E+00  1.20100000E+01  1.20100000E+01
  1.00800000E+00  1.20100000E+01  1.00800000E+00  1.00800000E+00  1.00800000E+00
  1.20100000E+01  1.20100000E+01  1.20100000E+01  1.20100000E+01  1.20100000E+01
  1.00800000E+00  1.20100000E+01  1.20100000E+01  1.20100000E+01  1.00800000E+00
  1.20100000E+01  1.20100000E+01  1.00800000E+00  1.00800000E+00  1.20100000E+01
  1.20100000E+01  1.20100000E+01  1.00800000E+00  1.20100000E+01  1.20100000E+01
  1.20100000E+01  1.00800000E+00  1.20100000E+01  1.00800000E+00  1.00800000E+00
  1.00800000E+00  1.20100000E+01  1.20100000E+01  1.00800000E+00  1.20100000E+01
  1.20100000E+01  1.00800000E+00  1.20100000E+01  1.00800000E+00  1.00800000E+00
  1.00800000E+00  1.20100000E+01  1.20100000E+01  1.20100000E+01  1.20100000E+01
  1.20100000E+01  1.00800000E+00  1.20100000E+01  1.20100000E+01  1.20100000E+01
  1.00800000E+00  1.20100000E+01  1.20100000E+01  1.00800000E+00  1.00800000E+00
  1.20100000E+01  1.20100000E+01  1.20100000E+01  1.00800000E+00  1.20100000E+01
  1.20100000E+01  1.20100000E+01  1.00800000E+00  1.20100000E+01  1.00800000E+00
  1.00800000E+00  1.00800000E+00  1.20100000E+01  1.20100000E+01  1.00800000E+00
  1.20100000E+01  1.20100000E+01  1.00800000E+00  1.20100000E+01  1.00800000E+00
  1.00800000E+00  1.00800000E+00  1.20100000E+01  1.20100000E+01  1.20100000E+01
  1.20100000E+01  1.20100000E+01  1.00800000E+00  1.20100000E+01  1.20100000E+01
  1.20100000E+01  1.00800000E+00  1.20100000E+01  1.20100000E+01  1.00800000E+00
  1.00800000E+00  1.20100000E+01  1.20100000E+01  1.20100000E+01  1.00800000E+00
  1.20100000E+01  1.20100000E+01  1.20100000E+01  1.00800000E+00  1.20100000E+01
  1.00800000E+00  1.00800000E+00  1.00800000E+00  1.20100000E+01  1.20100000E+01
  1.00800000E+00  1.20100000E+01  1.20100000E+01  1.00800000E+00  1.20100000E+01
  1.00800000E+00  1.00800000E+00  1.00800000E+00  1.20100000E+01  1.20100000E+01
  1.20100000E+01  1.20100000E+01  1.20100000E+01  1.00800000E+00  1.20100000E+01
  1.20100000E+01  1.20100000E+01  1.00800000E+00  1.20100000E+01  1.20100000E+01
  1.00800000E+00  1.00800000E+00  1.20100000E+01  1.20100000E+01  1.20100000E+01
  1.00800000E+00  1.20100000E+01  1.20100000E+01  1.20100000E+01  1.00800000E+00
  1.20100000E+01  1.00800000E+00  1.00800000E+00  1.00800000E+00  1.20100000E+01
  1.20100000E+01  1.00800000E+00  1.20100000E+01  1.20100000E+01  1.00800000E+00
  1.20100000E+01  1.00800000E+00  1.00800000E+00  1.00800000E+00  1.20100000E+01
  1.20100000E+01  1.20100000E+01  1.20100000E+01  1.20100000E+01  1.00800000E+00
  1.20100000E+01  1.20100000E+01  1.20100000E+01  1.00800000E+00  1.20100000E+01
  1.20100000E+01  1.00800000E+00  1.00800000E+00  1.20100000E+01  1.20100000E+01
  1.20100000E+01  1.00800000E+00  1.20100000E+01  1.20100000E+01  1.20100000E+01
  1.00800000E+00  1.20100000E+01  1.00800000E+00  1.00800000E+00  1.00800000E+00
  1.20100000E+01  1.20100000E+01  1.00800000E+00  1.20100000E+01  1.20100000E+01
  1.00800000E+00  1.20100000E+01  1.00800000E+00  1.00800000E+00  1.00800000E+00
  1.20100000E+01  1.20100000E+01  1.20100000E+01  1.20100000E+01  1.20100000E+01
  1.00800000E+00  1.20100000E+01  1.20100000E+01  1.20100000E+01  1.00800000E+00
  1.20100000E+01  1.20100000E+01  1.00800000E+00  1.00800000E+00  1.20100000E+01
  1.20100000E+01  1.20100000E+01  1.00800000E+00  1.20100000E+01  1.20100000E+01
  1.20100000E+01  1.00800000E+00  1.20100000E+01  1.00800000E+00  1.00800000E+00
  1.00800000E+00  1.20100000E+01  1.20100000E+01  1.00800000E+00  1.20100000E+01
  1.20100000E+01  1.00800000E+00  1.20100000E+01  1.00800000E+00  1.00800000E+00
  1.00800000E+00  1.20100000E+01  1.20100000E+01  1.20100000E+01  1.20100000E+01
  1.20100000E+01  1.00800000E+00  1.20100000E+01  1.20100000E+01  1.20100000E+01
  1.00800000E+00  1.20100000E+01  1.20100000E+01  1.00800000E+00  1.00800000E+00
  1.20100000E+01  1.20100000E+01  1.20100000E+01  1.00800000E+00  1.20100000E+01
  1.20100000E+01  1.20100000E+01  1.00800000E+00  1.20100000E+01  1.00800000E+00
  1.00800000E+00  1.00800000E+00  1.20100000E+01  1.20100000E+01  1.00800000E+00
  1.20100000E+01  1.20100000E+01  1.00800000E+00  1.20100000E+01  1.00800000E+00
  1.00800000E+00  1.00800000E+00  1.20100000E+01  1.20100000E+01  1.20100000E+01
  1.20100000E+01  1.20100000E+01  1.00800000E+00  1.20100000E+01  1.20100000E+01
  1.20100000E+01  1.00800000E+00  1.20100000E+01  1.20100000E+01  1.00800000E+00
  1.00800000E+00  1.20100000E+01  1.20100000E+01  1.20100000E+01  1.00800000E+00
  1.20100000E+01  1.20100000E+01  1.20100000E+01  1.00800000E+00  1.20100000E+01
  1.00800000E+00  1.00800000E+00  1.00800000E+00  1.20100000E+01  1.20100000E+01
  1.00800000E+00  1.20100000E+01  1.20100000E+01  1.00800000E+00  1.20100000E+01
  1.00800000E+00  1.00800000E+00  1.00800000E+00  1.20100000E+01  1.20100000E+01
  1.20100000E+01  1.20100000E+01  1.20100000E+01  1.00800000E+00  1.20100000E+01
  1.20100000E+01  1.20100000E+01  1.00800000E+00  1.20100000E+01  1.20100000E+01
  1.00800000E+00  1.00800000E+00  1.20100000E+01  1.20100000E+01  1.20100000E+01
  1.00800000E+00  1.20100000E+01  1.20100000E+01  1.20100000E+01  1.00800000E+00
  1.20100000E+01  1.00800000E+00  1.00800000E+00  1.00800000E+00  1.20100000E+01
  1.20100000E+01  1.00800000E+00  1.20100000E+01  1.20100000E+01  1.00800000E+00
  1.20100000E+01  1.00800000E+00  1.00800000E+00  1.00800000E+00  1.20100000E+01
  1.20100000E+01  1.20100000E+01  1.20100000E+01  1.20100000E+01  1.00800000E+00
  1.20100000E+01  1.20100000E+01  1.20100000E+01  1.00800000E+00  1.20100000E+01
  1.20100000E+01  1.00800000E+00  1.00800000E+00  1.20100000E+01  1.20100000E+01
  1.20100000E+01  1.00800000E+00  1.20100000E+01  1.20100000E+01  1.20100000E+01
  1.00800000E+00  1.20100000E+01  1.00800000E+00  1.00800000E+00  1.00800000E+00
  1.20100000E+01  1.20100000E+01  1.00800000E+00  1.20100000E+01  1.20100000E+01
  1.00800000E+00  1.20100000E+01  1.00800000E+00  1.00800000E+00  1.00800000E+00
  1.20100000E+01  1.20100000E+01  1.20100000E+01  1.20100000E+01  1.20100000E+01
  1.00800000E+00  1.20100000E+01  1.20100000E+01  1.20100000E+01  1.00800000E+00
  1.20100000E+01  1.20100000E+01  1.00800000E+00  1.00800000E+00  1.20100000E+01
  1.20100000E+01  1.20100000E+01  1.00800000E+00  1.20100000E+01  1.20100000E+01
  1.20100000E+01  1.00800000E+00  1.20100000E+01  1.00800000E+00  1.00800000E+00
  1.00800000E+00  1.20100000E+01  1.20100000E+01  1.00800000E+00  1.20100000E+01
  1.20100000E+01  1.00800000E+00  1.20100000E+01  1.00800000E+00  1.00800000E+00
  1.00800000E+00  1.20100000E+01  1.20100000E+01  1.20100000E+01  1.20100000E+01
  1.20100000E+01  1.00800000E+00  1.20100000E+01  1.20100000E+01  1.20100000E+01
  1.00800000E+00  1.20100000E+01  1.20100000E+01  1.00800000E+00  1.00800000E+00
  1.20100000E+01  1.20100000E+01  1.20100000E+01  1.00800000E+00  1.20100000E+01
  1.20100000E+01  1.20100000E+01  1.00800000E+00  1.20100000E+01  1.00800000E+00
  1.00800000E+00  1.00800000E+00  1.20100000E+01  1.20100000E+01  1.00800000E+00
  1.20100000E+01  1.20100000E+01  1.00800000E+00  1.20100000E+01  1.00800000E+00
  1.00800000E+00  1.00800000E+00  1.20100000E+01  1.20100000E+01  1.20100000E+01
  1.20100000E+01  1.20100000E+01  1.00800000E+00  1.20100000E+01  1.20100000E+01
  1.20100000E+01  1.00800000E+00  1.20100000E+01  1.20100000E+01  1.00800000E+00
  1.00800000E+00  1.20100000E+01  1.20100000E+01  1.20100000E+01  1.00800000E+00
  1.20100000E+01  1.20100000E+01  1.20100000E+01  1.00800000E+00  1.20100000E+01
  1.00800000E+00  1.00800000E+00  1.00800000E+00  1.20100000E+01  1.20100000E+01
  1.00800000E+00  1.20100000E+01  1.20100000E+01  1.00800000E+00  1.20100000E+01
  1.00800000E+00  1.00800000E+00  1.00800000E+00  1.20100000E+01  1.20100000E+01
  1.20100000E+01  1.20100000E+01  1.20100000E+01  1.00800000E+00  1.20100000E+01
  1.20100000E+01  1.20100000E+01  1.00800000E+00  1.20100000E+01  1.20100000E+01
  1.00800000E+00  1.00800000E+00  1.20100000E+01  1.20100000E+01  1.20100000E+01
  1.00800000E+00  1.20100000E+01  1.20100000E+01  1.20100000E+01  1.00800000E+00
  1.20100000E+01  1.00800000E+00  1.00800000E+00  1.00800000E+00  1.20100000E+01
  1.20100000E+01  1.00800000E+00  1.20100000E+01  1.20100000E+01  1.00800000E+00
  1.20100000E+01  1.00800000E+00  1.00800000E+00  1.00800000E+00  1.20100000E+01
  1.20100000E+01  1.20100000E+01  1.20100000E+01  1.20100000E+01  1.00800000E+00
  1.20100000E+01  1.20100000E+01  1.20100000E+01  1.00800000E+00  1.20100000E+01
  1.20100000E+01  1.00800000E+00  1.00800000E+00  1.20100000E+01  1.20100000E+01
  1.20100000E+01  1.00800000E+00  1.20100000E+01  1.20100000E+01  1.20100000E+01
  1.00800000E+00  1.20100000E+01  1.00800000E+00  1.00800000E+00  1.00800000E+00
  1.20100000E+01  1.20100000E+01  1.00800000E+00  1.20100000E+01  1.20100000E+01
  1.00800000E+00  1.20100000E+01  1.00800000E+00  1.00800000E+00  1.00800000E+00
  1.20100000E+01  1.20100000E+01  1.20100000E+01  1.20100000E+01  1.20100000E+01
  1.00800000E+00  1.20100000E+01  1.20100000E+01  1.20100000E+01  1.00800000E+00
  1.20100000E+01  1.20100000E+01  1.00800000E+00  1.00800000E+00  1.20100000E+01
  1.20100000E+01  1.20100000E+01  1.00800000E+00  1.20100000E+01  1.20100000E+01
  1.20100000E+01  1.00800000E+00  1.20100000E+01  1.00800000E+00  1.00800000E+00
  1.00800000E+00  1.20100000E+01  1.20100000E+01  1.00800000E+00  1.20100000E+01
  1.20100000E+01  1.00800000E+00  1.20100000E+01  1.00800000E+00  1.00800000E+00
  1.00800000E+00  1.20100000E+01  1.20100000E+01  1.20100000E+01  1.20100000E+01
  1.20100000E+01  1.00800000E+00  1.20100000E+01  1.20100000E+01  1.20100000E+01
  1.00800000E+00  1.20100000E+01  1.20100000E+01  1.00800000E+00  1.00800000E+00
  1.20100000E+01  1.20100000E+01  1.20100000E+01  1.00800000E+00  1.20100000E+01
  1.20100000E+01  1.20100000E+01  1.00800000E+00  1.20100000E+01  1.00800000E+00
  1.00800000E+00  1.00800000E+00  1.20100000E+01  1.20100000E+01  1.00800000E+00
  1.20100000E+01  1.20100000E+01  1.00800000E+00  1.20100000E+01  1.00800000E+00
  1.00800000E+00  1.00800000E+00  1.20100000E+01  1.20100000E+01  1.20100000E+01
  1.20100000E+01  1.20100000E+01  1.00800000E+00  1.20100000E+01  1.20100000E+01
  1.20100000E+01  1.00800000E+00  1.20100000E+01  1.20100000E+01  1.00800000E+00
  1.00800000E+00  1.20100000E+01  1.20100000E+01  1.20100000E+01  1.00800000E+00
  1.20100000E+01  1.20100000E+01  1.20100000E+01  1.00800000E+00  1.20100000E+01
  1.00800000E+00  1.00800000E+00  1.00800000E+00  1.20100000E+01  1.20100000E+01
  1.00800000E+00  1.20100000E+01  1.20100000E+01  1.00800000E+00  1.20100000E+01
  1.00800000E+00  1.00800000E+00  1.00800000E+00  1.20100000E+01  1.20100000E+01
  1.20100000E+01  1.20100000E+01  1.20100000E+01  1.00800000E+00  1.20100000E+01
  1.20100000E+01  1.20100000E+01  1.00800000E+00  1.20100000E+01  1.20100000E+01
  1.00800000E+00  1.00800000E+00  1.20100000E+01  1.20100000E+01  1.20100000E+01
  1.00800000E+00  1.20100000E+01  1.20100000E+01  1.20100000E+01  1.00800000E+00
  1.20100000E+01  1.00800000E+00  1.00800000E+00  1.00800000E+00  1.20100000E+01
  1.20100000E+01  1.00800000E+00  1.20100000E+01  1.20100000E+01  1.00800000E+00
  1.20100000E+01  1.00800000E+00  1.00800000E+00  1.00800000E+00  1.20100000E+01
  1.20100000E+01  1.20100000E+01  1.20100000E+01  1.20100000E+01  1.00800000E+00
  1.20100000E+01  1.20100000E+01  1.20100000E+01  1.00800000E+00  1.20100000E+01
  1.20100000E+01  1.00800000E+00  1.00800000E+00  1.20100000E+01  1.20100000E+01
  1.20100000E+01  1.00800000E+00  1.20100000E+01  1.20100000E+01  1.20100000E+01
  1.00800000E+00  1.20100000E+01  1.00800000E+00  1.00800000E+00  1.00800000E+00
  1.20100000E+01  1.20100000E+01  1.00800000E+00  1.20100000E+01  1.20100000E+01
  1.00800000E+00  1.20100000E+01  1.00800000E+00  1.00800000E+00  1.00800000E+00
  1.20100000E+01  1.20100000E+01  1.20100000E+01  1.20100000E+01  1.20100000E+01
  1.00800000E+00  1.20100000E+01  1.20100000E+01  1.20100000E+01  1.00800000E+00
  1.20100000E+01  1.20100000E+01  1.00800000E+00  1.00800000E+00  1.20100000E+01
  1.20100000E+01  1.20100000E+01  1.00800000E+00  1.20100000E+01  1.20100000E+01
  1.20100000E+01  1.00800000E+00  1.20100000E+01  1.00800000E+00  1.00800000E+00
  1.00800000E+00  1.20100000E+01  1.20100000E+01  1.00800000E+00  1.20100000E+01
  1.20100000E+01  1.00800000E+00  1.20100000E+01  1.00800000E+00  1.00800000E+00
  1.00800000E+00  1.20100000E+01  1.20100000E+01  1.20100000E+01  1.20100000E+01
  1.20100000E+01  1.00800000E+00  1.20100000E+01  1.20100000E+01  1.20100000E+01
  1.00800000E+00  1.20100000E+01  1.20100000E+01  1.00800000E+00  1.00800000E+00
  1.20100000E+01  1.20100000E+01  1.20100000E+01  1.00800000E+00  1.20100000E+01
  1.20100000E+01  1.20100000E+01  1.00800000E+00  1.20100000E+01  1.00800000E+00
  1.00800000E+00  1.00800000E+00  1.20100000E+01  1.20100000E+01  1.00800000E+00
  1.20100000E+01  1.20100000E+01  1.00800000E+00  1.20100000E+01  1.00800000E+00
  1.00800000E+00  1.00800000E+00  1.20100000E+01  1.20100000E+01  1.20100000E+01
  1.20100000E+01  1.20100000E+01  1.00800000E+00  1.20100000E+01  1.20100000E+01
  1.20100000E+01  1.00800000E+00  1.20100000E+01  1.20100000E+01  1.00800000E+00
  1.00800000E+00  1.20100000E+01  1.20100000E+01  1.20100000E+01  1.00800000E+00
  1.20100000E+01  1.20100000E+01  1.20100000E+01  1.00800000E+00  1.20100000E+01
  1.00800000E+00  1.00800000E+00  1.00800000E+00  1.20100000E+01  1.20100000E+01
  1.00800000E+00  1.20100000E+01  1.20100000E+01  1.00800000E+00  1.20100000E+01
  1.00800000E+00  1.00800000E+00  1.00800000E+00  1.20100000E+01  1.20100000E+01
  1.20100000E+01  1.20100000E+01  1.20100000E+01  1.00800000E+00  1.20100000E+01
  1.20100000E+01  1.20100000E+01  1.00800000E+00  1.20100000E+01  1.20100000E+01
  1.00800000E+00  1.00800000E+00  1.20100000E+01  1.20100000E+01  1.20100000E+01
  1.00800000E+00  1.20100000E+01  1.20100000E+01  1.20100000E+01  1.00800000E+00
  1.20100000E+01  1.00800000E+00  1.00800000E+00  1.00800000E+00  1.20100000E+01
  1.20100000E+01  1.00800000E+00  1.20100000E+01  1.20100000E+01  1.00800000E+00
  1.20100000E+01  1.00800000E+00  1.00800000E+00  1.00800000E+00  1.20100000E+01
  1.20100000E+01  1.20100000E+01  1.20100000E+01  1.20100000E+01  1.00800000E+00
  1.20100000E+01  1.20100000E+01  1.20100000E+01  1.00800000E+00  1.20100000E+01
  1.20100000E+01  1.00800000E+00  1.00800000E+00  1.20100000E+01  1.20100000E+01
  1.20100000E+01  1.00800000E+00  1.20100000E+01  1.20100000E+01  1.20100000E+01
  1.00800000E+00  1.20100000E+01  1.00800000E+00  1.00800000E+00  1.00800000E+00
  1.20100000E+01  1.20100000E+01  1.00800000E+00  1.20100000E+01  1.20100000E+01
  1.00800000E+00  1.20100000E+01  1.00800000E+00  1.00800000E+00  1.00800000E+00
  1.20100000E+01  1.20100000E+01  1.20100000E+01  1.20100000E+01  1.20100000E+01
  1.00800000E+00  1.20100000E+01  1.20100000E+01  1.20100000E+01  1.00800000E+00
  1.20100000E+01  1.20100000E+01  1.00800000E+00  1.00800000E+00  1.20100000E+01
  1.20100000E+01  1.20100000E+01  1.00800000E+00  1.20100000E+01  1.20100000E+01
  1.20100000E+01  1.00800000E+00  1.20100000E+01  1.00800000E+00  1.00800000E+00
  1.00800000E+00  1.20100000E+01  1.20100000E+01  1.00800000E+00  1.20100000E+01
  1.20100000E+01  1.00800000E+00  1.20100000E+01  1.00800000E+00  1.00800000E+00
  1.00800000E+00  1.20100000E+01  1.20100000E+01  1.20100000E+01  1.20100000E+01
  1.20100000E+01  1.00800000E+00  1.20100000E+01  1.20100000E+01  1.20100000E+01
  1.00800000E+00  1.20100000E+01  1.20100000E+01  1.00800000E+00  1.00800000E+00
  1.20100000E+01  1.20100000E+01  1.20100000E+01  1.00800000E+00  1.20100000E+01
  1.20100000E+01  1.20100000E+01  1.00800000E+00  1.20100000E+01  1.00800000E+00
  1.00800000E+00  1.00800000E+00  1.20100000E+01  1.20100000E+01  1.00800000E+00
  1.20100000E+01  1.20100000E+01  1.00800000E+00  1.20100000E+01  1.00800000E+00
  1.00800000E+00  1.00800000E+00  1.20100000E+01  1.20100000E+01  1.20100000E+01
  1.20100000E+01  1.20100000E+01  1.00800000E+00  1.20100000E+01  1.20100000E+01
  1.20100000E+01  1.00800000E+00  1.20100000E+01  1.20100000E+01  1.00800000E+00
  1.00800000E+00  1.20100000E+01  1.20100000E+01  1.20100000E+01  1.00800000E+00
  1.20100000E+01  1.20100000E+01  1.20100000E+01  1.00800000E+00  1.20100000E+01
  1.00800000E+00  1.00800000E+00  1.00800000E+00  1.20100000E+01  1.20100000E+01
  1.00800000E+00  1.20100000E+01  1.20100000E+01  1.00800000E+00  1.20100000E+01
  1.00800000E+00  1.00800000E+00  1.00800000E+00  1.20100000E+01  1.20100000E+01
  1.20100000E+01  1.20100000E+01  1.20100000E+01  1.00800000E+00  1.20100000E+01
  1.20100000E+01  1.20100000E+01  1.00800000E+00  1.20100000E+01  1.20100000E+01
  1.00800000E+00  1.00800000E+00  1.20100000E+01  1.20100000E+01  1.20100000E+01
  1.00800000E+00  1.20100000E+01  1.20100000E+01  1.20100000E+01  1.00800000E+00
  1.20100000E+01  1.00800000E+00  1.00800000E+00  1.00800000E+00  1.20100000E+01
  1.20100000E+01  1.00800000E+00  1.20100000E+01  1.20100000E+01  1.00800000E+00
  1.20100000E+01  1.00800000E+00  1.00800000E+00  1.00800000E+00  1.20100000E+01
  1.20100000E+01  1.20100000E+01  1.20100000E+01  1.20100000E+01  1.00800000E+00
  1.20100000E+01  1.20100000E+01  1.20100000E+01  1.00800000E+00  1.20100000E+01
  1.20100000E+01  1.00800000E+00  1.00800000E+00  1.20100000E+01  1.20100000E+01
  1.20100000E+01  1.00800000E+00  1.20100000E+01  1.20100000E+01  1.20100000E+01
  1.00800000E+00  1.20100000E+01  1.00800000E+00  1.00800000E+00  1.00800000E+00
  1.20100000E+01  1.20100000E+01  1.00800000E+00  1.20100000E+01  1.20100000E+01
  1.00800000E+00  1.20100000E+01  1.00800000E+00  1.00800000E+00  1.00800000E+00
  1.20100000E+01  1.20100000E+01  1.20100000E+01  1.20100000E+01  1.20100000E+01
  1.00800000E+00  1.20100000E+01  1.20100000E+01  1.20100000E+01  1.00800000E+00
  1.20100000E+01  1.20100000E+01  1.00800000E+00  1.00800000E+00  1.20100000E+01
  1.20100000E+01  1.20100000E+01  1.00800000E+00  1.20100000E+01  1.20100000E+01
  1.20100000E+01  1.00800000E+00  1.20100000E+01  1.00800000E+00  1.00800000E+00
  1.00800000E+00  1.20100000E+01  1.20100000E+01  1.00800000E+00  1.20100000E+01
  1.20100000E+01  1.00800000E+00  1.20100000E+01  1.00800000E+00  1.00800000E+00
  1.00800000E+00  1.20100000E+01  1.20100000E+01  1.20100000E+01  1.20100000E+01
  1.20100000E+01  1.00800000E+00  1.20100000E+01  1.20100000E+01  1.20100000E+01
  1.00800000E+00  1.20100000E+01  1.20100000E+01  1.00800000E+00  1.00800000E+00
  1.20100000E+01  1.20100000E+01  1.20100000E+01  1.00800000E+00  1.20100000E+01
  1.20100000E+01  1.20100000E+01  1.00800000E+00  1.20100000E+01  1.00800000E+00
  1.00800000E+00  1.00800000E+00  1.20100000E+01  1.20100000E+01  1.00800000E+00
  1.20100000E+01  1.20100000E+01  1.00800000E+00  1.20100000E+01  1.00800000E+00
  1.00800000E+00  1.00800000E+00  1.20100000E+01  1.20100000E+01  1.20100000E+01
  1.20100000E+01  1.20100000E+01  1.00800000E+00  1.20100000E+01  1.20100000E+01
  1.20100000E+01  1.00800000E+00  1.20100000E+01  1.20100000E+01  1.00800000E+00
  1.00800000E+00  1.20100000E+01  1.20100000E+01  1.20100000E+01  1.00800000E+00
  1.20100000E+01  1.20100000E+01  1.20100000E+01  1.00800000E+00  1.20100000E+01
  1.00800000E+00  1.00800000E+00  1.00800000E+00  1.20100000E+01  1.20100000E+01
  1.00800000E+00  1.20100000E+01  1.20100000E+01  1.00800000E+00  1.20100000E+01
  1.00800000E+00  1.00800000E+00  1.00800000E+00  1.20100000E+01  1.20100000E+01
  1.20100000E+01  1.20100000E+01  1.20100000E+01  1.00800000E+00  1.20100000E+01
  1.20100000E+01  1.20100000E+01  1.00800000E+00  1.20100000E+01  1.20100000E+01
  1.00800000E+00  1.00800000E+00  1.20100000E+01  1.20100000E+01  1.20100000E+01
  1.00800000E+00  1.20100000E+01  1.20100000E+01  1.20100000E+01  1.00800000E+00
  1.20100000E+01  1.00800000E+00  1.00800000E+00  1.00800000E+00  1.20100000E+01
  1.20100000E+01  1.00800000E+00  1.20100000E+01  1.20100000E+01  1.00800000E+00
  1.20100000E+01  1.00800000E+00  1.00800000E+00  1.00800000E+00  1.20100000E+01
  1.20100000E+01  1.20100000E+01  1.20100000E+01  1.20100000E+01  1.00800000E+00
  1.20100000E+01  1.20100000E+01  1.20100000E+01  1.00800000E+00  1.20100000E+01
  1.20100000E+01  1.00800000E+00  1.00800000E+00  1.20100000E+01  1.20100000E+01
  1.20100000E+01  1.00800000E+00  1.20100000E+01  1.20100000E+01  1.20100000E+01
  1.00800000E+00  1.20100000E+01  1.00800000E+00  1.00800000E+00  1.00800000E+00
  1.20100000E+01  1.20100000E+01  1.00800000E+00  1.20100000E+01  1.20100000E+01
  1.00800000E+00  1.20100000E+01  1.00800000E+00  1.00800000E+00  1.00800000E+00
  1.20100000E+01  1.20100000E+01  1.20100000E+01  1.20100000E+01  1.20100000E+01
  1.00800000E+00  1.20100000E+01  1.20100000E+01  1.20100000E+01  1.00800000E+00
  1.20100000E+01  1.20100000E+01  1.00800000E+00  1.00800000E+00  1.20100000E+01
  1.20100000E+01  1.20100000E+01  1.00800000E+00  1.20100000E+01  1.20100000E+01
  1.20100000E+01  1.00800000E+00  1.20100000E+01  1.00800000E+00  1.00800000E+00
  1.00800000E+00  1.20100000E+01  1.20100000E+01  1.00800000E+00  1.20100000E+01
  1.20100000E+01  1.00800000E+00  1.20100000E+01  1.00800000E+00  1.00800000E+00
  1.00800000E+00  1.20100000E+01  1.20100000E+01  1.20100000E+01  1.20100000E+01
  1.20100000E+01  1.00800000E+00  1.20100000E+01  1.20100000E+01  1.20100000E+01
  1.00800000E+00  1.20100000E+01  1.20100000E+01  1.00800000E+00  1.00800000E+00
  1.20100000E+01  1.20100000E+01  1.20100000E+01  1.00800000E+00  1.20100000E+01
  1.20100000E+01  1.20100000E+01  1.00800000E+00  1.20100000E+01  1.00800000E+00
  1.00800000E+00  1.00800000E+00  1.20100000E+01  1.20100000E+01  1.00800000E+00
  1.20100000E+01  1.20100000E+01  1.00800000E+00  1.20100000E+01  1.00800000E+00
  1.00800000E+00  1.00800000E+00  1.20100000E+01  1.20100000E+01  1.20100000E+01
  1.20100000E+01  1.20100000E+01  1.00800000E+00  1.20100000E+01  1.20100000E+01
  1.20100000E+01  1.00800000E+00  1.20100000E+01  1.20100000E+01  1.00800000E+00
  1.00800000E+00  1.20100000E+01  1.20100000E+01  1.20100000E+01  1.00800000E+00
  1.20100000E+01  1.20100000E+01  1.20100000E+01  1.00800000E+00  1.20100000E+01
  1.00800000E+00  1.00800000E+00  1.00800000E+00  1.20100000E+01  1.20100000E+01
  1.00800000E+00  1.20100000E+01  1.20100000E+01  1.00800000E+00  1.20100000E+01
  1.00800000E+00  1.00800000E+00  1.00800000E+00  1.20100000E+01  1.20100000E+01
  1.20100000E+01  1.20100000E+01  1.20100000E+01  1.00800000E+00  1.20100000E+01
  1.20100000E+01  1.20100000E+01  1.00800000E+00  1.20100000E+01  1.20100000E+01
  1.00800000E+00  1.00800000E+00  1.20100000E+01  1.20100000E+01  1.20100000E+01
  1.00800000E+00  1.20100000E+01  1.20100000E+01  1.20100000E+01  1.00800000E+00
  1.20100000E+01  1.00800000E+00  1.00800000E+00  1.00800000E+00  1.20100000E+01
  1.20100000E+01  1.00800000E+00  1.20100000E+01  1.20100000E+01  1.00800000E+00
  1.20100000E+01  1.00800000E+00  1.00800000E+00  1.00800000E+00
%FLAG ATOM_TYPE_INDEX                                                           
%FORMAT(10I8)                                                                   
       1       1       1       1       1       2       1       1       1       2
       1       1       2       2       1       1       1       2       1       1
       1       2       1       2       2       2       1       1       2       1
       1       2       1       2       2       2       1       1       1       1
       1       2       1       1       1       2       1       1       2       2
       1       1       1       2       1       1       1       2       1       2
       2       2       1       1       2       1       1       2       1       2
       2       2       1       1       1       1       1       2       1       1
       1       2       1       1       2       2       1       1       1       2
       1       1       1       2       1       2       2       2       1       1
       2       1       1       2       1       2       2       2       1       1
       1       1       1       2       1       1       1       2       1       1
       2       2       1       1       1       2       1       1       1       2
       1       2       2       2       1       1       2       1       1       2
       1       2       2       2       1       1       1       1       1       2
       1       1       1       2       1       1       2       2       1       1
       1       2       1       1       1       2       1       2       2       2
       1       1       2       1       1       2       1       2       2       2
       1       1       1       1       1       2       1       1       1       2
       1       1       2       2       1       1       1       2       1       1
       1       2       1       2       2       2       1       1       2       1
       1       2       1       2       2       2       1       1       1       1
       1       2       1       1       1       2       1       1       2       2
       1       1       1       2       1       1       1       2       1       2
       2       2       1       1       2       1       1       2       1       2
       2       2       1       1       1       1       1       2       1       1
       1       2       1       1       2       2       1       1       1       2
       1       1       1       2       1       2       2       2       1       1
       2       1       1       2       1       2       2       2       1       1
       1       1       1       2       1       1       1       2       1       1
       2       2       1       1       1       2       1       1       1       2
       1       2       2       2       1       1       2       1       1       2
       1       2       2       2       1       1       1       1       1       2
       1       1       1       2       1       1       2       2       1       1
       1       2       1       1       1       2       1       2       2       2
       1       1       2       1       1       2       1       2       2       2
       1       1       1       1       1       2       1       1       1       2
       1       1       2       2       1       1       1       2       1       1
       1       2       1       2       2       2       1       1       2       1
       1       2       1       2       2       2       1       1       1       1
       1       2       1       1       1       2       1       1       2       2
       1       1       1       2       1       1       1       2       1       2
       2       2       1       1       2       1       1       2       1       2
       2       2       1       1       1       1       1       2       1       1
       1       2       1       1       2       2       1       1       1       2
       1       1       1       2       1       2       2       2       1       1
       2       1       1       2       1       2       2       2       1       1
       1       1       1       2       1       1       1       2       1       1
       2       2       1       1       1       2       1       1       1       2
       1       2       2       2       1       1       2       1       1       2
       1       2       2       2       1       1       1       1       1       2
       1       1       1       2       1       1       2       2       1       1
       1       2       1       1       1       2       1       2       2       2
       1       1       2       1       1       2       1       2       2       2
       1       1       1       1       1       2       1       1       1       2
       1       1       2       2       1       1       1       2       1       1
       1       2       1       2       2       2       1       1       2       1
       1       2       1       2       2       2       1       1       1       1
       1       2       1       1       1       2       1       1       2       2
       1       1       1       2       1       1       1       2       1       2
       2       2       1       1       2       1       1       2       1       2
       2       2       1       1       1       1       1       2       1       1
       1       2       1       1       2       2       1       1       1       2
       1       1       1       2       1       2       2       2       1       1
       2       1       1       2       1       2       2       2       1       1
       1       1       1       2       1       1       1       2       1       1
       2       2       1       1       1       2       1       1       1       2
       1       2       2       2       1       1       2       1       1       2
       1       2       2       2       1       1       1       1       1       2
       1       1       1       2       1       1       2       2       1       1
       1       2       1       1       1       2       1       2       2       2
       1       1       2       1       1       2       1       2       2       2
       1       1       1       1       1       2       1       1       1       2
       1       1       2       2       1       1       1       2       1       1
       1       2       1       2       2       2       1       1       2       1
       1       2       1       2       2       2       1       1       1       1
       1       2       1       1       1       2       1       1       2       2
       1       1       1       2       1       1       1       2       1       2
       2       2       1       1       2       1       1       2       1       2
       2       2       1       1       1       1       1       2       1       1
       1       2       1       1       2       2       1       1       1       2
       1       1       1       2       1       2       2       2       1       1
       2       1       1       2       1       2       2       2       1       1
       1       1       1       2       1       1       1       2       1       1
       2       2       1       1       1       2       1       1       1       2
       1       2       2       2       1       1       2       1       1       2
       1       2       2       2       1       1       1       1       1       2
       1       1       1       2       1       1       2       2       1       1
       1       2       1       1       1       2       1       2       2       2
       1       1       2       1       1       2       1       2       2       2
       1       1       1       1       1       2       1       1       1       2
       1       1       2       2       1       1       1       2       1       1
       1       2       1       2       2       2       1       1       2       1
       1       2       1       2       2       2       1       1       1       1
       1       2       1       1       1       2       1       1       2       2
       1       1       1       2       1       1       1       2       1       2
       2       2       1       1       2       1       1       2       1       2
       2       2       1       1       1       1       1       2       1       1
       1       2       1       1       2       2       1       1       1       2
       1       1       1       2       1       2       2       2       1       1
       2       1       1       2       1       2       2       2       1       1
       1       1       1       2       1       1       1       2       1       1
       2       2       1       1       1       2       1       1       1       2
       1       2       2       2       1       1       2       1       1       2
       1       2       2       2       1       1       1       1       1       2
       1       1       1       2       1       1       2       2       1       1
       1       2       1       1       1       2       1       2       2       2
       1       1       2       1       1       2       1       2       2       2
       1       1       1       1       1       2       1       1       1       2
       1       1       2       2       1       1       1       2       1       1
       1       2       1       2       2       2       1       1       2       1
       1       2       1       2       2       2       1       1       1       1
       1       2       1       1       1       2       1       1       2       2
       1       1       1       2       1       1       1       2       1       2
       2       2       1       1       2       1       1       2       1       2
       2       2       1       1       1       1       1       2       1       1
       1       2       1       1       2       2       1       1       1       2
       1       1       1       2       1       2       2       2       1       1
       2       1       1       2       1       2       2       2       1       1
       1       1       1       2       1       1       1       2       1       1
       2       2       1       1       1       2       1       1       1       2
       1       2       2       2       1       1       2       1       1       2
       1       2       2       2       1       1       1       1       1       2
       1       1       1       2       1       1       2       2       1       1
       1       2       1       1       1       2       1       2       2       2
       1       1       2       1       1       2       1       2       2       2
       1       1       1       1       1       2       1       1       1       2
       1       1       2       2       1       1       1       2       1       1
       1       2       1       2       2       2       1       1       2       1
       1       2       1       2       2       2       1       1       1       1
       1       2       1       1       1       2       1       1       2       2
       1       1       1       2       1       1       1       2       1       2
       2       2       1       1       2       1       1       2       1       2
       2       2       1       1       1       1       1       2       1       1
       1       2       1       1       2       2       1       1       1       2
       1       1       1       2       1       2       2       2       1       1
       2       1       1       2       1       2       2       2       1       1
       1       1       1       2       1       1       1       2       1       1
       2       2       1       1       1       2       1       1       1       2
       1       2       2       2       1       1       2       1       1       2
       1       2       2       2       1       1       1       1       1       2
       1       1       1       2       1       1       2       2       1       1
       1       2       1       1       1       2       1       2       2       2
       1       1       2       1       1       2       1       2       2       2
       1       1       1       1       1       2       1       1       1       2
       1       1       2       2       1       1       1       2       1       1
       1       2       1       2       2       2       1       1       2       1
       1       2       1       2       2       2       1       1       1       1
       1       2       1       1       1       2       1       1       2       2
       1       1       1       2       1       1       1       2       1       2
       2       2       1       1       2       1       1       2       1       2
       2       2       1       1       1       1       1       2       1       1
       1       2       1       1       2       2       1       1       1       2
       1       1       1       2       1       2       2       2       1       1
       2       1       1       2       1       2       2       2       1       1
       1       1       1       2       1       1       1       2       1       1
       2       2       1       1       1       2       1       1       1       2
       1       2       2       2       1       1       2       1       1       2
       1       2       2       2       1       1       1       1       1       2
       1       1       1       2       1       1       2       2       1       1
       1       2       1       1       1       2       1       2       2       2
       1       1       2       1       1       2       1       2       2       2
       1       1       1       1       1       2       1       1       1       2
       1       1       2       2       1       1       1       2       1       1
       1       2       1       2       2       2       1       1       2       1
       1       2       1       2       2       2       1       1       1       1
       1       2       1       1       1       2       1       1       2       2
       1       1       1       2       1       1       1       2       1       2
       2       2       1       1       2       1       1       2       1       2
       2       2       1       1       1       1       1       2       1       1
       1       2       1       1       2       2       1       1       1       2
       1       1       1       2       1       2       2       2       1       1
       2       1       1       2       1       2       2       2       1       1
       1       1       1       2       1       1       1       2       1       1
       2       2       1       1       1       2       1       1       1       2
       1       2       2       2       1       1       2       1       1       2
       1       2       2       2       1       1       1       1       1       2
       1       1       1       2       1       1       2       2       1       1
       1       2       1       1       1       2       1       2       2       2
       1       1       2       1       1       2       1       2       2       2
       1       1       1       1       1       2       1       1       1       2
       1       1       2       2       1       1       1       2       1       1
       1       2       1       2       2       2       1       1       2       1
       1       2       1       2       2       2       1       1       1       1
       1       2       1       1       1       2       1       1       2       2
       1       1       1       2       1       1       1       2       1       2
       2       2       1       1       2       1       1       2       1       2
       2       2       1       1       1       1       1       2       1       1
       1       2       1       1       2       2       1       1       1       2
       1       1       1       2       1       2       2       2       1       1
       2       1       1       2       1       2       2       2       1       1
       1       1       1       2       1       1       1       2       1       1
       2       2       1       1       1       2       1       1       1       2
       1       2       2       2       1       1       2       1       1       2
       1       2       2       2
%FLAG NUMBER_EXCLUDED_ATOMS                                                     
%FORMAT(10I8)                                                                   
      15      13      13      11      11       2       9       9      10       2
       7       7       1       2       7       8       6       2       4       7
      10       2       3       1       1       2       7       6       1       5
       5       2       3       1       1       1      15      13      13      11
      11       2       9       9      10       2       7       7       1       2
       7       8       6       2       4       7      10       2       3       1
       1       2       7       6       1       5       5       2       3       1
       1       1      15      13      13      11      11       2       9       9
      10       2       7       7       1       2       7       8       6       2
       4       7      10       2       3       1       1       2       7       6
       1       5       5       2       3       1       1       1      15      13
      13      11      11       2       9       9      10       2       7       7
       1       2       7       8       6       2       4       7      10       2
       3       1       1       2       7       6       1       5       5       2
       3       1       1       1      15      13      13      11      11       2
       9       9      10       2       7       7       1       2       7       8
       6       2       4       7      10       2       3       1       1       2
       7       6       1       5       5       2       3       1       1       1
      15      13      13      11      11       2       9       9      10       2
       7       7       1       2       7       8       6       2       4       7
      10       2       3       1       1       2       7       6       1       5
       5       2       3       1       1       1      15      13      13      11
      11       2       9       9      10       2       7       7       1       2
       7       8       6       2       4       7      10       2       3       1
       1       2       7       6       1       5       5       2       3       1
       1       1      15      13      13      11      11       2       9       9
      10       2       7       7       1       2       7       8       6       2
       4       7      10       2       3       1       1       2       7       6
       1       5       5       2       3       1       1       1      15      13
      13      11      11       2       9       9      10       2       7       7
       1       2       7       8       6       2       4       7      10       2
       3       1       1       2       7       6       1       5       5       2
       3       1       1       1      15      13      13      11      11       2
       9       9      10       2       7       7       1       2       7       8
       6       2       4       7      10       2       3       1       1       2
       7       6       1       5       5       2       3       1       1       1
      15      13      13      11      11       2       9       9      10       2
       7       7       1       2       7       8       6       2       4       7
      10       2       3       1       1       2       7       6       1       5
       5       2       3       1       1       1      15      13      13      11
      11       2       9       9      10       2       7       7       1       2
       7       8       6       2       4       7      10       2       3       1
       1       2       7       6       1       5       5       2       3       1
       1       1      15      13      13      11      11       2       9       9
      10       2       7       7       1       2       7       8       6       2
       4       7      10       2       3       1       1       2       7       6
       1       5       5       2       3       1       1       1      15      13
      13      11      11       2       9       9      10       2       7       7
       1       2       7       8       6       2       4       7      10       2
       3       1       1       2       7       6       1       5       5       2
       3       1       1       1      15      13      13      11      11       2
       9       9      10       2       7       7       1       2       7       8
       6       2       4       7      10       2       3       1       1       2
       7       6       1       5       5       2       3       1       1       1
      15      13      13      11      11       2       9       9      10       2
       7       7       1       2       7       8       6       2       4       7
      10       2       3       1       1       2       7       6       1       5
       5       2       3       1       1       1      15      13      13      11
      11       2       9       9      10       2       7       7       1       2
       7       8       6       2       4       7      10       2       3       1
       1       2       7       6       1       5       5       2       3       1
       1       1      15      13      13      11      11       2       9       9
      10       2       7       7       1       2       7       8       6       2
       4       7      10       2       3       1       1       2       7       6
       1       5       5       2       3       1       1       1      15      13
      13      11      11       2       9       9      10       2       7       7
       1       2       7       8       6       2       4       7      10       2
       3       1       1       2       7       6       1       5       5       2
       3       1       1       1      15      13      13      11      11       2
       9       9      10       2       7       7       1       2       7       8
       6       2       4       7      10       2       3       1       1       2
       7       6       1       5       5       2       3       1       1       1
      15      13      13      11      11       2       9       9      10       2
       7       7       1       2       7       8       6       2       4       7
      10       2       3       1       1       2       7       6       1       5
       5       2       3       1       1       1      15      13      13      11
      11       2       9       9      10       2       7       7       1       2
       7       8       6       2       4       7      10       2       3       1
       1       2       7       6       1       5       5       2       3       1
       1       1      15      13      13      11      11       2       9       9
      10       2       7       7       1       2       7       8       6       2
       4       7      10       2       3       1       1       2       7       6
       1       5       5       2       3       1       1       1      15      13
      13      11      11       2       9       9      10       2       7       7
       1       2       7       8       6       2       4       7      10       2
       3       1       1       2       7       6       1       5       5       2
       3       1       1       1      15      13      13      11      11       2
       9       9      10       2       7       7       1       2       7       8
       6       2       4       7      10       2       3       1       1       2
       7       6       1       5       5       2       3       1       1       1
      15      13      13      11      11       2       9       9      10       2
       7       7       1       2       7       8       6       2       4       7
      10       2       3       1       1       2       7       6       1       5
       5       2       3       1       1       1      15      13      13      11
      11       2       9       9      10       2       7       7       1       2
       7       8       6       2       4       7      10       2       3       1
       1       2       7       6       1       5       5       2       3       1
       1       1      15      13      13      11      11       2       9       9
      10       2       7       7       1       2       7       8       6       2
       4       7      10       2       3       1       1       2       7       6
       1       5       5       2       3       1       1       1      15      13
      13      11      11       2       9       9      10       2       7       7
       1       2       7       8       6       2       4       7      10       2
       3       1       1       2       7       6       1       5       5       2
       3       1       1       1      15      13      13      11      11       2
       9       9      10       2       7       7       1       2       7       8
       6       2       4       7      10       2       3       1       1       2
       7       6       1       5       5       2       3       1       1       1
      15      13      13      11      11       2       9       9      10       2
       7       7       1       2       7       8       6       2       4       7
      10       2       3       1       1       2       7       6       1       5
       5       2       3       1       1       1      15      13      13      11
      11       2       9       9      10       2       7       7       1       2
       7       8       6       2       4       7      10       2       3       1
       1       2       7       6       1       5       5       2       3       1
       1       1      15      13      13      11      11       2       9       9
      10       2       7       7       1       2       7       8       6       2
       4       7      10       2       3       1       1       2       7       6
       1       5       5       2       3       1       1       1      15      13
      13      11      11       2       9       9      10       2       7       7
       1       2       7       8       6       2       4       7      10       2
       3       1       1       2       7       6       1       5       5       2
       3       1       1       1      15      13      13      11      11       2
       9       9      10       2       7       7       1       2       7       8
       6       2       4       7      10       2       3       1       1       2
       7       6       1       5       5       2       3       1       1       1
      15      13      13      11      11       2       9       9      10       2
       7       7       1       2       7       8       6       2       4       7
      10       2       3       1       1       2       7       6       1       5
       5       2       3       1       1       1      15      13      13      11
      11       2       9       9      10       2       7       7       1       2
       7       8       6       2       4       7      10       2       3       1
       1       2       7       6       1       5       5       2       3       1
       1       1      15      13      13      11      11       2       9       9
      10       2       7       7       1       2       7       8       6       2
       4       7      10       2       3       1       1       2       7       6
       1       5       5       2       3       1       1       1      15      13
      13      11      11       2       9       9      10       2       7       7
       1       2       7       8       6       2       4       7      10       2
       3       1       1       2       7       6       1       5       5       2
       3       1       1       1      15      13      13      11      11       2
       9       9      10       2       7       7       1       2       7       8
       6       2       4       7      10       2       3       1       1       2
       7       6       1       5       5       2       3       1       1       1
      15      13      13      11      11       2       9       9      10       2
       7       7       1       2       7       8       6       2       4       7
      10       2       3       1       1       2       7       6       1       5
       5       2       3       1       1       1      15      13      13      11
      11       2       9       9      10       2       7       7       1       2
       7       8       6       2       4       7      10       2       3       1
       1       2       7       6       1       5       5       2       3       1
       1       1      15      13      13      11      11       2       9       9
      10       2       7       7       1       2       7       8       6       2
       4       7      10       2       3       1       1       2       7       6
       1       5       5       2       3       1       1       1      15      13
      13      11      11       2       9       9      10       2       7       7
       1       2       7       8       6       2       4       7      10       2
       3       1       1       2       7       6       1       5       5       2
       3       1       1       1      15      13      13      11      11       2
       9       9      10       2       7       7       1       2       7       8
       6       2       4       7      10       2       3       1       1       2
       7       6       1       5       5       2       3       1       1       1
      15      13      13      11      11       2       9       9      10       2
       7       7       1       2       7       8       6       2       4       7
      10       2       3       1       1       2       7       6       1       5
       5       2       3       1       1       1      15      13      13      11
      11       2       9       9      10       2       7       7       1       2
       7       8       6       2       4       7      10       2       3       1
       1       2       7       6       1       5       5       2       3       1
       1       1      15      13      13      11      11       2       9       9
      10       2       7       7       1       2       7       8       6       2
       4       7      10       2       3       1       1       2       7       6
       1       5       5       2       3       1       1       1      15      13
      13      11      11       2       9       9      10       2       7       7
       1       2       7       8       6       2       4       7      10       2
       3       1       1       2       7       6       1       5       5       2
       3       1       1       1      15      13      13      11      11       2
       9       9      10       2       7       7       1       2       7       8
       6       2       4       7      10       2       3       1       1       2
       7       6       1       5       5       2       3       1       1       1
      15      13      13      11      11       2       9       9      10       2
       7       7       1       2       7       8       6       2       4       7
      10       2       3       1       1       2       7       6       1       5
       5       2       3       1       1       1      15      13      13      11
      11       2       9       9      10       2       7       7       1       2
       7       8       6       2       4       7      10       2       3       1
       1       2       7       6       1       5       5       2       3       1
       1       1      15      13      13      11      11       2       9       9
      10       2       7       7       1       2       7       8       6       2
       4       7      10       2       3       1       1       2       7       6
       1       5       5       2       3       1       1       1      15      13
      13      11      11       2       9       9      10       2       7       7
       1       2       7       8       6       2       4       7      10       2
       3       1       1       2       7       6       1       5       5       2
       3       1       1       1
%FLAG NONBONDED_PARM_INDEX                                                      
%FORMAT(10I8)                                                                   
       1       2       2       3
%FLAG RESIDUE_LABEL                                                             
%FORMAT(20a4)                                                                   
PEN PEN PEN PEN PEN PEN PEN PEN PEN PEN PEN PEN PEN PEN PEN PEN PEN PEN PEN PEN 
PEN PEN PEN PEN PEN PEN PEN PEN PEN PEN PEN PEN PEN PEN PEN PEN PEN PEN PEN PEN 
PEN PEN PEN PEN PEN PEN PEN PEN PEN PEN PEN PEN PEN PEN 
%FLAG RESIDUE_POINTER                                                           
%FORMAT(10I8)                                                                   
       1      37      73     109     145     181     217     253     289     325
     361     397     433     469     505     541     577     613     649     685
     721     757     793     829     865     901     937     973    1009    1045
    1081    1117    1153    1189    1225    1261    1297    1333    1369    1405
    1441    1477    1513    1549    1585    1621    1657    1693    1729    1765
    1801    1837    1873    1909
%FLAG BOND_FORCE_CONSTANT                                                       
%FORMAT(5E16.8)                                                                 
  3.60690000E+02  3.54250000E+02
%FLAG BOND_EQUIL_VALUE                                                          
%FORMAT(5E16.8)                                                                 
  1.08600000E+00  1.39860000E+00
%FLAG ANGLE_FORCE_CONSTANT                                                      
%FORMAT(5E16.8)                                                                 
  4.49000000E+01  6.36700000E+01
%FLAG ANGLE_EQUIL_VALUE                                                         
%FORMAT(5E16.8)                                                                 
  2.09230160E+00  2.09474507E+00
%FLAG DIHEDRAL_FORCE_CONSTANT                                                   
%FORMAT(5E16.8)                                                                 
  3.62500000E+00  1.10000000E+00
%FLAG DIHEDRAL_PERIODICITY                                                      
%FORMAT(5E16.8)                                                                 
  2.00000000E+00  2.00000000E+00
%FLAG DIHEDRAL_PHASE                                                            
%FORMAT(5E16.8)                                                                 
  3.14159400E+00  3.14159400E+00
%FLAG SCEE_SCALE_FACTOR                                                         
%FORMAT(5E16.8)                                                                 
  1.20000000E+00  0.00000000E+00
%FLAG SCNB_SCALE_FACTOR                                                         
%FORMAT(5E16.8)                                                                 
  2.00000000E+00  0.00000000E+00
%FLAG SOLTY                                                                     
%FORMAT(5E16.8)                                                                 
  0.00000000E+00  0.00000000E+00
%FLAG LENNARD_JONES_ACOEF                                                       
%FORMAT(5E16.8)                                                                 
  6.96551276E+05  7.52549148E+04  6.90855956E+03
%FLAG LENNARD_JONES_BCOEF                                                       
%FORMAT(5E16.8)                                                                 
  5.24668528E+02  1.09570372E+02  2.10929191E+01
%FLAG BONDS_INC_HYDROGEN                                                        
%FORMAT(10I8)                                                                   
      96     105       1      90     102       1      87      99       1      81
      93       1      66      84       1      57      75       1      54      72
       1      48      69       1      45      63       1      30      51       1
      21      39       1      18      36       1       9      27       1       3
      15       1     204     213       1     198     210       1     195     207
       1     189     201       1     174     192       1     165     183       1
     162     180       1     156     177       1     153     171       1     138
     159       1     129     147       1     126     144       1     117     135
       1     111     123       1     312     321       1     306     318       1
     303     315       1     297     309       1     282     300       1     273
     291       1     270     288       1     264     285       1     261     279
       1     246     267       1     237     255       1     234     252       1
     225     243       1     219     231       1     420     429       1     414
     426       1     411     423       1     405     417       1     390     408
       1     381     399       1     378     396       1     372     393       1
     369     387       1     354     375       1     345     363       1     342
     360       1     333     351       1     327     339       1     528     537
       1     522     534       1     519     531       1     513     525       1
     498     516       1     489     507       1     486     504       1     480
     501       1     477     495       1     462     483       1     453     471
       1     450     468       1     441     459       1     435     447       1
     636     645       1     630     642       1     627     639       1     621
     633       1     606     624       1     597     615       1     594     612
       1     588     609       1     585     603       1     570     591       1
     561     579       1     558     576       1     549     567       1     543
     555       1     744     753       1     738     750       1     735     747
       1     729     741       1     714     732       1     705     723       1
     702     720       1     696     717       1     693     711       1     678
     699       1     669     687       1     666     684       1     657     675
       1     651     663       1     852     861       1     846     858       1
     843     855       1     837     849       1     822     840       1     813
     831       1     810     828       1     804     825       1     801     819
       1     786     807       1     777     795       1     774     792       1
     765     783       1     759     771       1     960     969       1     954
     966       1     951     963       1     945     957       1     930     948
       1     921     939       1     918     936       1     912     933       1
     909     927       1     894     915       1     885     903       1     882
     900       1     873     891       1     867     879       1    1068    1077
       1    1062    1074       1    1059    1071       1    1053    1065       1
    1038    1056       1    1029    1047       1    1026    1044       1    1020
    1041       1    1017    1035       1    1002    1023       1     993    1011
       1     990    1008       1     981     999       1     975     987       1
    1176    1185       1    1170    1182       1    1167    1179       1    1161
    1173       1    1146    1164       1    1137    1155       1    1134    1152
       1    1128    1149       1    1125    1143       1    1110    1131       1
    1101    1119       1    1098    1116       1    1089    1107       1    1083
    1095       1    1284    1293       1    1278    1290       1    1275    1287
       1    1269    1281       1    1254    1272       1    1245    1263       1
    1242    1260       1    1236    1257       1    1233    1251       1    1218
    1239       1    1209    1227       1    1206    1224       1    1197    1215
       1    1191    1203       1    1392    1401       1    1386    1398       1
    1383    1395       1    1377    1389       1    1362    1380       1    1353
    1371       1    1350    1368       1    1344    1365       1    1341    1359
       1    1326    1347       1    1317    1335       1    1314    1332       1
    1305    1323       1    1299    1311       1    1500    1509       1    1494
    1506       1    1491    1503       1    1485    1497       1    1470    1488
       1    1461    1479       1    1458    1476       1    1452    1473       1
    1449    1467       1    1434    1455       1    1425    1443       1    1422
    1440       1    1413    1431       1    1407    1419       1    1608    1617
       1    1602    1614       1    1599    1611       1    1593    1605       1
    1578    1596       1    1569    1587       1    1566    1584       1    1560
    1581       1    1557    1575       1    1542    1563       1    1533    1551
       1    1530    1548       1    1521    1539       1    1515    1527       1
    1716    1725       1    1710    1722       1    1707    1719       1    1701
    1713       1    1686    1704       1    1677    1695       1    1674    1692
       1    1668    1689       1    1665    1683       1    1650    1671       1
    1641    1659       1    1638    1656       1    1629    1647       1    1623
    1635       1    1824    1833       1    1818    1830       1    1815    1827
       1    1809    1821       1    1794    1812       1    1785    1803       1
    1782    1800       1    1776    1797       1    1773    1791       1    1758
    1779       1    1749    1767       1    1746    1764       1    1737    1755
       1    1731    1743       1    1932    1941       1    1926    1938       1
    1923    1935       1    1917    1929       1    1902    1920       1    1893
    1911       1    1890    1908       1    1884    1905       1    1881    1899
       1    1866    1887       1    1857    1875       1    1854    1872       1
    1845    1863       1    1839    1851       1    2040    2049       1    2034
    2046       1    2031    2043       1    2025    2037       1    2010    2028
       1    2001    2019       1    1998    2016       1    1992    2013       1
    1989    2007       1    1974    1995       1    1965    1983       1    1962
    1980       1    1953    1971       1    1947    1959       1    2148    2157
       1    2142    2154       1    2139    2151       1    2133    2145       1
    2118    2136       1    2109    2127       1    2106    2124       1    2100
    2121       1    2097    2115       1    2082    2103       1    2073    2091
       1    2070    2088       1    2061    2079       1    2055    2067       1
    2256    2265       1    2250    2262       1    2247    2259       1    2241
    2253       1    2226    2244       1    2217    2235       1    2214    2232
       1    2208    2229       1    2205    2223       1    2190    2211       1
    2181    2199       1    2178    2196       1    2169    2187       1    2163
    2175       1    2364    2373       1    2358    2370       1    2355    2367
       1    2349    2361       1    2334    2352       1    2325    2343       1
    2322    2340       1    2316    2337       1    2313    2331       1    2298
    2319       1    2289    2307       1    2286    2304       1    2277    2295
       1    2271    2283       1    2472    2481       1    2466    2478       1
    2463    2475       1    2457    2469       1    2442    2460       1    2433
    2451       1    2430    2448       1    2424    2445       1    2421    2439
       1    2406    2427       1    2397    2415       1    2394    2412       1
    2385    2403       1    2379    2391       1    2580    2589       1    2574
    2586       1    2571    2583       1    2565    2577       1    2550    2568
       1    2541    2559       1    2538    2556       1    2532    2553       1
    2529    2547       1    2514    2535       1    2505    2523       1    2502
    2520       1    2493    2511       1    2487    2499       1    2688    2697
       1    2682    2694       1    2679    2691       1    2673    2685       1
    2658    2676       1    2649    2667       1    2646    2664       1    2640
    2661       1    2637    2655       1    2622    2643       1    2613    2631
       1    2610    2628       1    2601    2619       1    2595    2607       1
    2796    2805       1    2790    2802       1    2787    2799       1    2781
    2793       1    2766    2784       1    2757    2775       1    2754    2772
       1    2748    2769       1    2745    2763       1    2730    2751       1
    2721    2739       1    2718    2736       1    2709    2727       1    2703
    2715       1    2904    2913       1    2898    2910       1    2895    2907
       1    2889    2901       1    2874    2892       1    2865    2883       1
    2862    2880       1    2856    2877       1    2853    2871       1    2838
    2859       1    2829    2847       1    2826    2844       1    2817    2835
       1    2811    2823       1    3012    3021       1    3006    3018       1
    3003    3015       1    2997    3009       1    2982    3000       1    2973
    2991       1    2970    2988       1    2964    2985       1    2961    2979
       1    2946    2967       1    2937    2955       1    2934    2952       1
    2925    2943       1    2919    2931       1    3120    3129       1    3114
    3126       1    3111    3123       1    3105    3117       1    3090    3108
       1    3081    3099       1    3078    3096       1    3072    3093       1
    3069    3087       1    3054    3075       1    3045    3063       1    3042
    3060       1    3033    3051       1    3027    3039       1    3228    3237
       1    3222    3234       1    3219    3231       1    3213    3225       1
    3198    3216       1    3189    3207       1    3186    3204       1    3180
    3201       1    3177    3195       1    3162    3183       1    3153    3171
       1    3150    3168       1    3141    3159       1    3135    3147       1
    3336    3345       1    3330    3342       1    3327    3339       1    3321
    3333       1    3306    3324       1    3297    3315       1    3294    3312
       1    3288    3309       1    3285    3303       1    3270    3291       1
    3261    3279       1    3258    3276       1    3249    3267       1    3243
    3255       1    3444    3453       1    3438    3450       1    3435    3447
       1    3429    3441       1    3414    3432       1    3405    3423       1
    3402    3420       1    3396    3417       1    3393    3411       1    3378
    3399       1    3369    3387       1    3366    3384       1    3357    3375
       1    3351    3363       1    3552    3561       1    3546    3558       1
    3543    3555       1    3537    3549       1    3522    3540       1    3513
    3531       1    3510    3528       1    3504    3525       1    3501    3519
       1    3486    3507       1    3477    3495       1    3474    3492       1
    3465    3483       1    3459    3471       1    3660    3669       1    3654
    3666       1    3651    3663       1    3645    3657       1    3630    3648
       1    3621    3639       1    3618    3636       1    3612    3633       1
    3609    3627       1    3594    3615       1    3585    3603       1    3582
    3600       1    3573    3591       1    3567    3579       1    3768    3777
       1    3762    3774       1    3759    3771       1    3753    3765       1
    3738    3756       1    3729    3747       1    3726    3744       1    3720
    3741       1    3717    3735       1    3702    3723       1    3693    3711
       1    3690    3708       1    3681    3699       1    3675    3687       1
    3876    3885       1    3870    3882       1    3867    3879       1    3861
    3873       1    3846    3864       1    3837    3855       1    3834    3852
       1    3828    3849       1    3825    3843       1    3810    3831       1
    3801    3819       1    3798    3816       1    3789    3807       1    3783
    3795       1    3984    3993       1    3978    3990       1    3975    3987
       1    3969    3981       1    3954    3972       1    3945    3963       1
    3942    3960       1    3936    3957       1    3933    3951       1    3918
    3939       1    3909    3927       1    3906    3924       1    3897    3915
       1    3891    3903       1    4092    4101       1    4086    4098       1
    4083    4095       1    4077    4089       1    4062    4080       1    4053
    4071       1    4050    4068       1    4044    4065       1    4041    4059
       1    4026    4047       1    4017    4035       1    4014    4032       1
    4005    4023       1    3999    4011       1    4200    4209       1    4194
    4206       1    4191    4203       1    4185    4197       1    4170    4188
       1    4161    4179       1    4158    4176       1    4152    4173       1
    4149    4167       1    4134    4155       1    4125    4143       1    4122
    4140       1    4113    4131       1    4107    4119       1    4308    4317
       1    4302    4314       1    4299    4311       1    4293    4305       1
    4278    4296       1    4269    4287       1    4266    4284       1    4260
    4281       1    4257    4275       1    4242    4263       1    4233    4251
       1    4230    4248       1    4221    4239       1    4215    4227       1
    4416    4425       1    4410    4422       1    4407    4419       1    4401
    4413       1    4386    4404       1    4377    4395       1    4374    4392
       1    4368    4389       1    4365    4383       1    4350    4371       1
    4341    4359       1    4338    4356       1    4329    4347       1    4323
    4335       1    4524    4533       1    4518    4530       1    4515    4527
       1    4509    4521       1    4494    4512       1    4485    4503       1
    4482    4500       1    4476    4497       1    4473    4491       1    4458
    4479       1    4449    4467       1    4446    4464       1    4437    4455
       1    4431    4443       1    4632    4641       1    4626    4638       1
    4623    4635       1    4617    4629       1    4602    4620       1    4593
    4611       1    4590    4608       1    4584    4605       1    4581    4599
       1    4566    4587       1    4557    4575       1    4554    4572       1
    4545    4563       1    4539    4551       1    4740    4749       1    4734
    4746       1    4731    4743       1    4725    4737       1    4710    4728
       1    4701    4719       1    4698    4716       1    4692    4713       1
    4689    4707       1    4674    4695       1    4665    4683       1    4662
    4680       1    4653    4671       1    4647    4659       1    4848    4857
       1    4842    4854       1    4839    4851       1    4833    4845       1
    4818    4836       1    4809    4827       1    4806    4824       1    4800
    4821       1    4797    4815       1    4782    4803       1    4773    4791
       1    4770    4788       1    4761    4779       1    4755    4767       1
    4956    4965       1    4950    4962       1    4947    4959       1    4941
    4953       1    4926    4944       1    4917    4935       1    4914    4932
       1    4908    4929       1    4905    4923       1    4890    4911       1
    4881    4899       1    4878    4896       1    4869    4887       1    4863
    4875       1    5064    5073       1    5058    5070       1    5055    5067
       1    5049    5061       1    5034    5052       1    5025    5043       1
    5022    5040       1    5016    5037       1    5013    5031       1    4998
    5019       1    4989    5007       1    4986    5004       1    4977    4995
       1    4971    4983       1    5172    5181       1    5166    5178       1
    5163    5175       1    5157    5169       1    5142    5160       1    5133
    5151       1    5130    5148       1    5124    5145       1    5121    5139
       1    5106    5127       1    5097    5115       1    5094    5112       1
    5085    5103       1    5079    5091       1    5280    5289       1    5274
    5286       1    5271    5283       1    5265    5277       1    5250    5268
       1    5241    5259       1    5238    5256       1    5232    5253       1
    5229    5247       1    5214    5235       1    5205    5223       1    5202
    5220       1    5193    5211       1    5187    5199       1    5388    5397
       1    5382    5394       1    5379    5391       1    5373    5385       1
    5358    5376       1    5349    5367       1    5346    5364       1    5340
    5361       1    5337    5355       1    5322    5343       1    5313    5331
       1    5310    5328       1    5301    5319       1    5295    5307       1
    5496    5505       1    5490    5502       1    5487    5499       1    5481
    5493       1    5466    5484       1    5457    5475       1    5454    5472
       1    5448    5469       1    5445    5463       1    5430    5451       1
    5421    5439       1    5418    5436       1    5409    5427       1    5403
    5415       1    5604    5613       1    5598    5610       1    5595    5607
       1    5589    5601       1    5574    5592       1    5565    5583       1
    5562    5580       1    5556    5577       1    5553    5571       1    5538
    5559       1    5529    5547       1    5526    5544       1    5517    5535
       1    5511    5523       1    5712    5721       1    5706    5718       1
    5703    5715       1    5697    5709       1    5682    5700       1    5673
    5691       1    5670    5688       1    5664    5685       1    5661    5679
       1    5646    5667       1    5637    5655       1    5634    5652       1
    5625    5643       1    5619    5631       1    5820    5829       1    5814
    5826       1    5811    5823       1    5805    5817       1    5790    5808
       1    5781    5799       1    5778    5796       1    5772    5793       1
    5769    5787       1    5754    5775       1    5745    5763       1    5742
    5760       1    5733    5751       1    5727    5739       1
%FLAG BONDS_WITHOUT_HYDROGEN                                                    
%FORMAT(10I8)                                                                   
      90      96       2      87      96       2      81      90       2      78
      87       2      60      78       2      60      81       2      57      78
       2      54      66       2      48      66       2      45      60       2
      42      57       2      33      54       2      30      48       2      24
      42       2      24      45       2      21      42       2      18      33
       2      12      30       2      12      33       2       9      24       2
       6      18       2       6      21       2       3      12       2       0
       3       2       0       6       2       0       9       2     198     204
       2     195     204       2     189     198       2     186     195       2
     168     186       2     168     189       2     165     186       2     162
     174       2     156     174       2     153     168       2     150     165
       2     141     162       2     138     156       2     132     150       2
     132     153       2     129     150       2     126     141       2     120
     138       2     120     141       2     117     132       2     114     126
       2     114     129       2     111     120       2     108     111       2
     108     114       2     108     117       2     306     312       2     303
     312       2     297     306       2     294     303       2     276     294
       2     276     297       2     273     294       2     270     282       2
     264     282       2     261     276       2     258     273       2     249
     270       2     246     264       2     240     258       2     240     261
       2     237     258       2     234     249       2     228     246       2
     228     249       2     225     240       2     222     234       2     222
     237       2     219     228       2     216     219       2     216     222
       2     216     225       2     414     420       2     411     420       2
     405     414       2     402     411       2     384     402       2     384
     405       2     381     402       2     378     390       2     372     390
       2     369     384       2     366     381       2     357     378       2
     354     372       2     348     366       2     348     369       2     345
     366       2     342     357       2     336     354       2     336     357
       2     333     348       2     330     342       2     330     345       2
     327     336       2     324     327       2     324     330       2     324
     333       2     522     528       2     519     528       2     513     522
       2     510     519       2     492     510       2     492     513       2
     489     510       2     486     498       2     480     498       2     477
     492       2     474     489       2     465     486       2     462     480
       2     456     474       2     456     477       2     453     474       2
     450     465       2     444     462       2     444     465       2     441
     456       2     438     450       2     438     453       2     435     444
       2     432     435       2     432     438       2     432     441       2
     630     636       2     627     636       2     621     630       2     618
     627       2     600     618       2     600     621       2     597     618
       2     594     606       2     588     606       2     585     600       2
     582     597       2     573     594       2     570     588       2     564
     582       2     564     585       2     561     582       2     558     573
       2     552     570       2     552     573       2     549     564       2
     546     558       2     546     561       2     543     552       2     540
     543       2     540     546       2     540     549       2     738     744
       2     735     744       2     729     738       2     726     735       2
     708     726       2     708     729       2     705     726       2     702
     714       2     696     714       2     693     708       2     690     705
       2     681     702       2     678     696       2     672     690       2
     672     693       2     669     690       2     666     681       2     660
     678       2     660     681       2     657     672       2     654     666
       2     654     669       2     651     660       2     648     651       2
     648     654       2     648     657       2     846     852       2     843
     852       2     837     846       2     834     843       2     816     834
       2     816     837       2     813     834       2     810     822       2
     804     822       2     801     816       2     798     813       2     789
     810       2     786     804       2     780     798       2     780     801
       2     777     798       2     774     789       2     768     786       2
     768     789       2     765     780       2     762     774       2     762
     777       2     759     768       2     756     759       2     756     762
       2     756     765       2     954     960       2     951     960       2
     945     954       2     942     951       2     924     942       2     924
     945       2     921     942       2     918     930       2     912     930
       2     909     924       2     906     921       2     897     918       2
     894     912       2     888     906       2     888     909       2     885
     906       2     882     897       2     876     894       2     876     897
       2     873     888       2     870     882       2     870     885       2
     867     876       2     864     867       2     864     870       2     864
     873       2    1062    1068       2    1059    1068       2    1053    1062
       2    1050    1059       2    1032    1050       2    1032    1053       2
    1029    1050       2    1026    1038       2    1020    1038       2    1017
    1032       2    1014    1029       2    1005    1026       2    1002    1020
       2     996    1014       2     996    1017       2     993    1014       2
     990    1005       2     984    1002       2     984    1005       2     981
     996       2     978     990       2     978     993       2     975     984
       2     972     975       2     972     978       2     972     981       2
    1170    1176       2    1167    1176       2    1161    1170       2    1158
    1167       2    1140    1158       2    1140    1161       2    1137    1158
       2    1134    1146       2    1128    1146       2    1125    1140       2
    1122    1137       2    1113    1134       2    1110    1128       2    1104
    1122       2    1104    1125       2    1101    1122       2    1098    1113
       2    1092    1110       2    1092    1113       2    1089    1104       2
    1086    1098       2    1086    1101       2    1083    1092       2    1080
    1083       2    1080    1086       2    1080    1089       2    1278    1284
       2    1275    1284       2    1269    1278       2    1266    1275       2
    1248    1266       2    1248    1269       2    1245    1266       2    1242
    1254       2    1236    1254       2    1233    1248       2    1230    1245
       2    1221    1242       2    1218    1236       2    1212    1230       2
    1212    1233       2    1209    1230       2    1206    1221       2    1200
    1218       2    1200    1221       2    1197    1212       2    1194    1206
       2    1194    1209       2    1191    1200       2    1188    1191       2
    1188    1194       2    1188    1197       2    1386    1392       2    1383
    1392       2    1377    1386       2    1374    1383       2    1356    1374
       2    1356    1377       2    1353    1374       2    1350    1362       2
    1344    1362       2    1341    1356       2    1338    1353       2    1329
    1350       2    1326    1344       2    1320    1338       2    1320    1341
       2    1317    1338       2    1314    1329       2    1308    1326       2
    1308    1329       2    1305    1320       2    1302    1314       2    1302
    1317       2    1299    1308       2    1296    1299       2    1296    1302
       2    1296    1305       2    1494    1500       2    1491    1500       2
    1485    1494       2    1482    1491       2    1464    1482       2    1464
    1485       2    1461    1482       2    1458    1470       2    1452    1470
       2    1449    1464       2    1446    1461       2    1437    1458       2
    1434    1452       2    1428    1446       2    1428    1449       2    1425
    1446       2    1422    1437       2    1416    1434       2    1416    1437
       2    1413    1428       2    1410    1422       2    1410    1425       2
    1407    1416       2    1404    1407       2    1404    1410       2    1404
    1413       2    1602    1608       2    1599    1608       2    1593    1602
       2    1590    1599       2    1572    1590       2    1572    1593       2
    1569    1590       2    1566    1578       2    1560    1578       2    1557
    1572       2    1554    1569       2    1545    1566       2    1542    1560
       2    1536    1554       2    1536    1557       2    1533    1554       2
    1530    1545       2    1524    1542       2    1524    1545       2    1521
    1536       2    1518    1530       2    1518    1533       2    1515    1524
       2    1512    1515       2    1512    1518       2    1512    1521       2
    1710    1716       2    1707    1716       2    1701    1710       2    1698
    1707       2    1680    1698       2    1680    1701       2    1677    1698
       2    1674    1686       2    1668    1686       2    1665    1680       2
    1662    1677       2    1653    1674       2    1650    1668       2    1644
    1662       2    1644    1665       2    1641    1662       2    1638    1653
       2    1632    1650       2    1632    1653       2    1629    1644       2
    1626    1638       2    1626    1641       2    1623    1632       2    1620
    1623       2    1620    1626       2    1620    1629       2    1818    1824
       2    1815    1824       2    1809    1818       2    1806    1815       2
    1788    1806       2    1788    1809       2    1785    1806       2    1782
    1794       2    1776    1794       2    1773    1788       2    1770    1785
       2    1761    1782       2    1758    1776       2    1752    1770       2
    1752    1773       2    1749    1770       2    1746    1761       2    1740
    1758       2    1740    1761       2    1737    1752       2    1734    1746
       2    1734    1749       2    1731    1740       2    1728    1731       2
    1728    1734       2    1728    1737       2    1926    1932       2    1923
    1932       2    1917    1926       2    1914    1923       2    1896    1914
       2    1896    1917       2    1893    1914       2    1890    1902       2
    1884    1902       2    1881    1896       2    1878    1893       2    1869
    1890       2    1866    1884       2    1860    1878       2    1860    1881
       2    1857    1878       2    1854    1869       2    1848    1866       2
    1848    1869       2    1845    1860       2    1842    1854       2    1842
    1857       2    1839    1848       2    1836    1839       2    1836    1842
       2    1836    1845       2    2034    2040       2    2031    2040       2
    2025    2034       2    2022    2031       2    2004    2022       2    2004
    2025       2    2001    2022       2    1998    2010       2    1992    2010
       2    1989    2004       2    1986    2001       2    1977    1998       2
    1974    1992       2    1968    1986       2    1968    1989       2    1965
    1986       2    1962    1977       2    1956    1974       2    1956    1977
       2    1953    1968       2    1950    1962       2    1950    1965       2
    1947    1956       2    1944    1947       2    1944    1950       2    1944
    1953       2    2142    2148       2    2139    2148       2    2133    2142
       2    2130    2139       2    2112    2130       2    2112    2133       2
    2109    2130       2    2106    2118       2    2100    2118       2    2097
    2112       2    2094    2109       2    2085    2106       2    2082    2100
       2    2076    2094       2    2076    2097       2    2073    2094       2
    2070    2085       2    2064    2082       2    2064    2085       2    2061
    2076       2    2058    2070       2    2058    2073       2    2055    2064
       2    2052    2055       2    2052    2058       2    2052    2061       2
    2250    2256       2    2247    2256       2    2241    2250       2    2238
    2247       2    2220    2238       2    2220    2241       2    2217    2238
       2    2214    2226       2    2208    2226       2    2205    2220       2
    2202    2217       2    2193    2214       2    2190    2208       2    2184
    2202       2    2184    2205       2    2181    2202       2    2178    2193
       2    2172    2190       2    2172    2193       2    2169    2184       2
    2166    2178       2    2166    2181       2    2163    2172       2    2160
    2163       2    2160    2166       2    2160    2169       2    2358    2364
       2    2355    2364       2    2349    2358       2    2346    2355       2
    2328    2346       2    2328    2349       2    2325    2346       2    2322
    2334       2    2316    2334       2    2313    2328       2    2310    2325
       2    2301    2322       2    2298    2316       2    2292    2310       2
    2292    2313       2    2289    2310       2    2286    2301       2    2280
    2298       2    2280    2301       2    2277    2292       2    2274    2286
       2    2274    2289       2    2271    2280       2    2268    2271       2
    2268    2274       2    2268    2277       2    2466    2472       2    2463
    2472       2    2457    2466       2    2454    2463       2    2436    2454
       2    2436    2457       2    2433    2454       2    2430    2442       2
    2424    2442       2    2421    2436       2    2418    2433       2    2409
    2430       2    2406    2424       2    2400    2418       2    2400    2421
       2    2397    2418       2    2394    2409       2    2388    2406       2
    2388    2409       2    2385    2400       2    2382    2394       2    2382
    2397       2    2379    2388       2    2376    2379       2    2376    2382
       2    2376    2385       2    2574    2580       2    2571    2580       2
    2565    2574       2    2562    2571       2    2544    2562       2    2544
    2565       2    2541    2562       2    2538    2550       2    2532    2550
       2    2529    2544       2    2526    2541       2    2517    2538       2
    2514    2532       2    2508    2526       2    2508    2529       2    2505
    2526       2    2502    2517       2    2496    2514       2    2496    2517
       2    2493    2508       2    2490    2502       2    2490    2505       2
    2487    2496       2    2484    2487       2    2484    2490       2    2484
    2493       2    2682    2688       2    2679    2688       2    2673    2682
       2    2670    2679       2    2652    2670       2    2652    2673       2
    2649    2670       2    2646    2658       2    2640    2658       2    2637
    2652       2    2634    2649       2    2625    2646       2    2622    2640
       2    2616    2634       2    2616    2637       2    2613    2634       2
    2610    2625       2    2604    2622       2    2604    2625       2    2601
    2616       2    2598    2610       2    2598    2613       2    2595    2604
       2    2592    2595       2    2592    2598       2    2592    2601       2
    2790    2796       2    2787    2796       2    2781    2790       2    2778
    2787       2    2760    2778       2    2760    2781       2    2757    2778
       2    2754    2766       2    2748    2766       2    2745    2760       2
    2742    2757       2    2733    2754       2    2730    2748       2    2724
    2742       2    2724    2745       2    2721    2742       2    2718    2733
       2    2712    2730       2    2712    2733       2    2709    2724       2
    2706    2718       2    2706    2721       2    2703    2712       2    2700
    2703       2    2700    2706       2    2700    2709       2    2898    2904
       2    2895    2904       2    2889    2898       2    2886    2895       2
    2868    2886       2    2868    2889       2    2865    2886       2    2862
    2874       2    2856    2874       2    2853    2868       2    2850    2865
       2    2841    2862       2    2838    2856       2    2832    2850       2
    2832    2853       2    2829    2850       2    2826    2841       2    2820
    2838       2    2820    2841       2    2817    2832       2    2814    2826
       2    2814    2829       2    2811    2820       2    2808    2811       2
    2808    2814       2    2808    2817       2    3006    3012       2    3003
    3012       2    2997    3006       2    2994    3003       2    2976    2994
       2    2976    2997       2    2973    2994       2    2970    2982       2
    2964    2982       2    2961    2976       2    2958    2973       2    2949
    2970       2    2946    2964       2    2940    2958       2    2940    2961
       2    2937    2958       2    2934    2949       2    2928    2946       2
    2928    2949       2    2925    2940       2    2922    2934       2    2922
    2937       2    2919    2928       2    2916    2919       2    2916    2922
       2    2916    2925       2    3114    3120       2    3111    3120       2
    3105    3114       2    3102    3111       2    3084    3102       2    3084
    3105       2    3081    3102       2    3078    3090       2    3072    3090
       2    3069    3084       2    3066    3081       2    3057    3078       2
    3054    3072       2    3048    3066       2    3048    3069       2    3045
    3066       2    3042    3057       2    3036    3054       2    3036    3057
       2    3033    3048       2    3030    3042       2    3030    3045       2
    3027    3036       2    3024    3027       2    3024    3030       2    3024
    3033       2    3222    3228       2    3219    3228       2    3213    3222
       2    3210    3219       2    3192    3210       2    3192    3213       2
    3189    3210       2    3186    3198       2    3180    3198       2    3177
    3192       2    3174    3189       2    3165    3186       2    3162    3180
       2    3156    3174       2    3156    3177       2    3153    3174       2
    3150    3165       2    3144    3162       2    3144    3165       2    3141
    3156       2    3138    3150       2    3138    3153       2    3135    3144
       2    3132    3135       2    3132    3138       2    3132    3141       2
    3330    3336       2    3327    3336       2    3321    3330       2    3318
    3327       2    3300    3318       2    3300    3321       2    3297    3318
       2    3294    3306       2    3288    3306       2    3285    3300       2
    3282    3297       2    3273    3294       2    3270    3288       2    3264
    3282       2    3264    3285       2    3261    3282       2    3258    3273
       2    3252    3270       2    3252    3273       2    3249    3264       2
    3246    3258       2    3246    3261       2    3243    3252       2    3240
    3243       2    3240    3246       2    3240    3249       2    3438    3444
       2    3435    3444       2    3429    3438       2    3426    3435       2
    3408    3426       2    3408    3429       2    3405    3426       2    3402
    3414       2    3396    3414       2    3393    3408       2    3390    3405
       2    3381    3402       2    3378    3396       2    3372    3390       2
    3372    3393       2    3369    3390       2    3366    3381       2    3360
    3378       2    3360    3381       2    3357    3372       2    3354    3366
       2    3354    3369       2    3351    3360       2    3348    3351       2
    3348    3354       2    3348    3357       2    3546    3552       2    3543
    3552       2    3537    3546       2    3534    3543       2    3516    3534
       2    3516    3537       2    3513    3534       2    3510    3522       2
    3504    3522       2    3501    3516       2    3498    3513       2    3489
    3510       2    3486    3504       2    3480    3498       2    3480    3501
       2    3477    3498       2    3474    3489       2    3468    3486       2
    3468    3489       2    3465    3480       2    3462    3474       2    3462
    3477       2    3459    3468       2    3456    3459       2    3456    3462
       2    3456    3465       2    3654    3660       2    3651    3660       2
    3645    3654       2    3642    3651       2    3624    3642       2    3624
    3645       2    3621    3642       2    3618    3630       2    3612    3630
       2    3609    3624       2    3606    3621       2    3597    3618       2
    3594    3612       2    3588    3606       2    3588    3609       2    3585
    3606       2    3582    3597       2    3576    3594       2    3576    3597
       2    3573    3588       2    3570    3582       2    3570    3585       2
    3567    3576       2    3564    3567       2    3564    3570       2    3564
    3573       2    3762    3768       2    3759    3768       2    3753    3762
       2    3750    3759       2    3732    3750       2    3732    3753       2
    3729    3750       2    3726    3738       2    3720    3738       2    3717
    3732       2    3714    3729       2    3705    3726       2    3702    3720
       2    3696    3714       2    3696    3717       2    3693    3714       2
    3690    3705       2    3684    3702       2    3684    3705       2    3681
    3696       2    3678    3690       2    3678    3693       2    3675    3684
       2    3672    3675       2    3672    3678       2    3672    3681       2
    3870    3876       2    3867    3876       2    3861    3870       2    3858
    3867       2    3840    3858       2    3840    3861       2    3837    3858
       2    3834    3846       2    3828    3846       2    3825    3840       2
    3822    3837       2    3813    3834       2    3810    3828       2    3804
    3822       2    3804    3825       2    3801    3822       2    3798    3813
       2    3792    3810       2    3792    3813       2    3789    3804       2
    3786    3798       2    3786    3801       2    3783    3792       2    3780
    3783       2    3780    3786       2    3780    3789       2    3978    3984
       2    3975    3984       2    3969    3978       2    3966    3975       2
    3948    3966       2    3948    3969       2    3945    3966       2    3942
    3954       2    3936    3954       2    3933    3948       2    3930    3945
       2    3921    3942       2    3918    3936       2    3912    3930       2
    3912    3933       2    3909    3930       2    3906    3921       2    3900
    3918       2    3900    3921       2    3897    3912       2    3894    3906
       2    3894    3909       2    3891    3900       2    3888    3891       2
    3888    3894       2    3888    3897       2    4086    4092       2    4083
    4092       2    4077    4086       2    4074    4083       2    4056    4074
       2    4056    4077       2    4053    4074       2    4050    4062       2
    4044    4062       2    4041    4056       2    4038    4053       2    4029
    4050       2    4026    4044       2    4020    4038       2    4020    4041
       2    4017    4038       2    4014    4029       2    4008    4026       2
    4008    4029       2    4005    4020       2    4002    4014       2    4002
    4017       2    3999    4008       2    3996    3999       2    3996    4002
       2    3996    4005       2    4194    4200       2    4191    4200       2
    4185    4194       2    4182    4191       2    4164    4182       2    4164
    4185       2    4161    4182       2    4158    4170       2    4152    4170
       2    4149    4164       2    4146    4161       2    4137    4158       2
    4134    4152       2    4128    4146       2    4128    4149       2    4125
    4146       2    4122    4137       2    4116    4134       2    4116    4137
       2    4113    4128       2    4110    4122       2    4110    4125       2
    4107    4116       2    4104    4107       2    4104    4110       2    4104
    4113       2    4302    4308       2    4299    4308       2    4293    4302
       2    4290    4299       2    4272    4290       2    4272    4293       2
    4269    4290       2    4266    4278       2    4260    4278       2    4257
    4272       2    4254    4269       2    4245    4266       2    4242    4260
       2    4236    4254       2    4236    4257       2    4233    4254       2
    4230    4245       2    4224    4242       2    4224    4245       2    4221
    4236       2    4218    4230       2    4218    4233       2    4215    4224
       2    4212    4215       2    4212    4218       2    4212    4221       2
    4410    4416       2    4407    4416       2    4401    4410       2    4398
    4407       2    4380    4398       2    4380    4401       2    4377    4398
       2    4374    4386       2    4368    4386       2    4365    4380       2
    4362    4377       2    4353    4374       2    4350    4368       2    4344
    4362       2    4344    4365       2    4341    4362       2    4338    4353
       2    4332    4350       2    4332    4353       2    4329    4344       2
    4326    4338       2    4326    4341       2    4323    4332       2    4320
    4323       2    4320    4326       2    4320    4329       2    4518    4524
       2    4515    4524       2    4509    4518       2    4506    4515       2
    4488    4506       2    4488    4509       2    4485    4506       2    4482
    4494       2    4476    4494       2    4473    4488       2    4470    4485
       2    4461    4482       2    4458    4476       2    4452    4470       2
    4452    4473       2    4449    4470       2    4446    4461       2    4440
    4458       2    4440    4461       2    4437    4452       2    4434    4446
       2    4434    4449       2    4431    4440       2    4428    4431       2
    4428    4434       2    4428    4437       2    4626    4632       2    4623
    4632       2    4617    4626       2    4614    4623       2    4596    4614
       2    4596    4617       2    4593    4614       2    4590    4602       2
    4584    4602       2    4581    4596       2    4578    4593       2    4569
    4590       2    4566    4584       2    4560    4578       2    4560    4581
       2    4557    4578       2    4554    4569       2    4548    4566       2
    4548    4569       2    4545    4560       2    4542    4554       2    4542
    4557       2    4539    4548       2    4536    4539       2    4536    4542
       2    4536    4545       2    4734    4740       2    4731    4740       2
    4725    4734       2    4722    4731       2    4704    4722       2    4704
    4725       2    4701    4722       2    4698    4710       2    4692    4710
       2    4689    4704       2    4686    4701       2    4677    4698       2
    4674    4692       2    4668    4686       2    4668    4689       2    4665
    4686       2    4662    4677       2    4656    4674       2    4656    4677
       2    4653    4668       2    4650    4662       2    4650    4665       2
    4647    4656       2    4644    4647       2    4644    4650       2    4644
    4653       2    4842    4848       2    4839    4848       2    4833    4842
       2    4830    4839       2    4812    4830       2    4812    4833       2
    4809    4830       2    4806    4818       2    4800    4818       2    4797
    4812       2    4794    4809       2    4785    4806       2    4782    4800
       2    4776    4794       2    4776    4797       2    4773    4794       2
    4770    4785       2    4764    4782       2    4764    4785       2    4761
    4776       2    4758    4770       2    4758    4773       2    4755    4764
       2    4752    4755       2    4752    4758       2    4752    4761       2
    4950    4956       2    4947    4956       2    4941    4950       2    4938
    4947       2    4920    4938       2    4920    4941       2    4917    4938
       2    4914    4926       2    4908    4926       2    4905    4920       2
    4902    4917       2    4893    4914       2    4890    4908       2    4884
    4902       2    4884    4905       2    4881    4902       2    4878    4893
       2    4872    4890       2    4872    4893       2    4869    4884       2
    4866    4878       2    4866    4881       2    4863    4872       2    4860
    4863       2    4860    4866       2    4860    4869       2    5058    5064
       2    5055    5064       2    5049    5058       2    5046    5055       2
    5028    5046       2    5028    5049       2    5025    5046       2    5022
    5034       2    5016    5034       2    5013    5028       2    5010    5025
       2    5001    5022       2    4998    5016       2    4992    5010       2
    4992    5013       2    4989    5010       2    4986    5001       2    4980
    4998       2    4980    5001       2    4977    4992       2    4974    4986
       2    4974    4989       2    4971    4980       2    4968    4971       2
    4968    4974       2    4968    4977       2    5166    5172       2    5163
    5172       2    5157    5166       2    5154    5163       2    5136    5154
       2    5136    5157       2    5133    5154       2    5130    5142       2
    5124    5142       2    5121    5136       2    5118    5133       2    5109
    5130       2    5106    5124       2    5100    5118       2    5100    5121
       2    5097    5118       2    5094    5109       2    5088    5106       2
    5088    5109       2    5085    5100       2    5082    5094       2    5082
    5097       2    5079    5088       2    5076    5079       2    5076    5082
       2    5076    5085       2    5274    5280       2    5271    5280       2
    5265    5274       2    5262    5271       2    5244    5262       2    5244
    5265       2    5241    5262       2    5238    5250       2    5232    5250
       2    5229    5244       2    5226    5241       2    5217    5238       2
    5214    5232       2    5208    5226       2    5208    5229       2    5205
    5226       2    5202    5217       2    5196    5214       2    5196    5217
       2    5193    5208       2    5190    5202       2    5190    5205       2
    5187    5196       2    5184    5187       2    5184    5190       2    5184
    5193       2    5382    5388       2    5379    5388       2    5373    5382
       2    5370    5379       2    5352    5370       2    5352    5373       2
    5349    5370       2    5346    5358       2    5340    5358       2    5337
    5352       2    5334    5349       2    5325    5346       2    5322    5340
       2    5316    5334       2    5316    5337       2    5313    5334       2
    5310    5325       2    5304    5322       2    5304    5325       2    5301
    5316       2    5298    5310       2    5298    5313       2    5295    5304
       2    5292    5295       2    5292    5298       2    5292    5301       2
    5490    5496       2    5487    5496       2    5481    5490       2    5478
    5487       2    5460    5478       2    5460    5481       2    5457    5478
       2    5454    5466       2    5448    5466       2    5445    5460       2
    5442    5457       2    5433    5454       2    5430    5448       2    5424
    5442       2    5424    5445       2    5421    5442       2    5418    5433
       2    5412    5430       2    5412    5433       2    5409    5424       2
    5406    5418       2    5406    5421       2    5403    5412       2    5400
    5403       2    5400    5406       2    5400    5409       2    5598    5604
       2    5595    5604       2    5589    5598       2    5586    5595       2
    5568    5586       2    5568    5589       2    5565    5586       2    5562
    5574       2    5556    5574       2    5553    5568       2    5550    5565
       2    5541    5562       2    5538    5556       2    5532    5550       2
    5532    5553       2    5529    5550       2    5526    5541       2    5520
    5538       2    5520    5541       2    5517    5532       2    5514    5526
       2    5514    5529       2    5511    5520       2    5508    5511       2
    5508    5514       2    5508    5517       2    5706    5712       2    5703
    5712       2    5697    5706       2    5694    5703       2    5676    5694
       2    5676    5697       2    5673    5694       2    5670    5682       2
    5664    5682       2    5661    5676       2    5658    5673       2    5649
    5670       2    5646    5664       2    5640    5658       2    5640    5661
       2    5637    5658       2    5634    5649       2    5628    5646       2
    5628    5649       2    5625    5640       2    5622    5634       2    5622
    5637       2    5619    5628       2    5616    5619       2    5616    5622
       2    5616    5625       2    5814    5820       2    5811    5820       2
    5805    5814       2    5802    5811       2    5784    5802       2    5784
    5805       2    5781    5802       2    5778    5790       2    5772    5790
       2    5769    5784       2    5766    5781       2    5757    5778       2
    5754    5772       2    5748    5766       2    5748    5769       2    5745
    5766       2    5742    5757       2    5736    5754       2    5736    5757
       2    5733    5748       2    5730    5742       2    5730    5745       2
    5727    5736       2    5724    5727       2    5724    5730       2    5724
    5733       2
%FLAG ANGLES_INC_HYDROGEN                                                       
%FORMAT(10I8)                                                                   
      96      87      99       1      96      90     102       1      90      81
      93       1      90      96     105       1      87      96     105       1
      81      90     102       1      78      87      99       1      75      57
      78       1      66      48      69       1      66      54      72       1
      60      45      63       1      60      81      93       1      54      66
      84       1      48      30      51       1      48      66      84       1
      42      57      75       1      39      21      42       1      33      18
      36       1      33      54      72       1      30      48      69       1
      24       9      27       1      24      45      63       1      12       3
      15       1      12      30      51       1       6      18      36       1
       6      21      39       1       0       3      15       1       0       9
      27       1     204     195     207       1     204     198     210       1
     198     189     201       1     198     204     213       1     195     204
     213       1     189     198     210       1     186     195     207       1
     183     165     186       1     174     156     177       1     174     162
     180       1     168     153     171       1     168     189     201       1
     162     174     192       1     156     138     159       1     156     174
     192       1     150     165     183       1     147     129     150       1
     141     126     144       1     141     162     180       1     138     156
     177       1     132     117     135       1     132     153     171       1
     120     111     123       1     120     138     159       1     114     126
     144       1     114     129     147       1     108     111     123       1
     108     117     135       1     312     303     315       1     312     306
     318       1     306     297     309       1     306     312     321       1
     303     312     321       1     297     306     318       1     294     303
     315       1     291     273     294       1     282     264     285       1
     282     270     288       1     276     261     279       1     276     297
     309       1     270     282     300       1     264     246     267       1
     264     282     300       1     258     273     291       1     255     237
     258       1     249     234     252       1     249     270     288       1
     246     264     285       1     240     225     243       1     240     261
     279       1     228     219     231       1     228     246     267       1
     222     234     252       1     222     237     255       1     216     219
     231       1     216     225     243       1     420     411     423       1
     420     414     426       1     414     405     417       1     414     420
     429       1     411     420     429       1     405     414     426       1
     402     411     423       1     399     381     402       1     390     372
     393       1     390     378     396       1     384     369     387       1
     384     405     417       1     378     390     408       1     372     354
     375       1     372     390     408       1     366     381     399       1
     363     345     366       1     357     342     360       1     357     378
     396       1     354     372     393       1     348     333     351       1
     348     369     387       1     336     327     339       1     336     354
     375       1     330     342     360       1     330     345     363       1
     324     327     339       1     324     333     351       1     528     519
     531       1     528     522     534       1     522     513     525       1
     522     528     537       1     519     528     537       1     513     522
     534       1     510     519     531       1     507     489     510       1
     498     480     501       1     498     486     504       1     492     477
     495       1     492     513     525       1     486     498     516       1
     480     462     483       1     480     498     516       1     474     489
     507       1     471     453     474       1     465     450     468       1
     465     486     504       1     462     480     501       1     456     441
     459       1     456     477     495       1     444     435     447       1
     444     462     483       1     438     450     468       1     438     453
     471       1     432     435     447       1     432     441     459       1
     636     627     639       1     636     630     642       1     630     621
     633       1     630     636     645       1     627     636     645       1
     621     630     642       1     618     627     639       1     615     597
     618       1     606     588     609       1     606     594     612       1
     600     585     603       1     600     621     633       1     594     606
     624       1     588     570     591       1     588     606     624       1
     582     597     615       1     579     561     582       1     573     558
     576       1     573     594     612       1     570     588     609       1
     564     549     567       1     564     585     603       1     552     543
     555       1     552     570     591       1     546     558     576       1
     546     561     579       1     540     543     555       1     540     549
     567       1     744     735     747       1     744     738     750       1
     738     729     741       1     738     744     753       1     735     744
     753       1     729     738     750       1     726     735     747       1
     723     705     726       1     714     696     717       1     714     702
     720       1     708     693     711       1     708     729     741       1
     702     714     732       1     696     678     699       1     696     714
     732       1     690     705     723       1     687     669     690       1
     681     666     684       1     681     702     720       1     678     696
     717       1     672     657     675       1     672     693     711       1
     660     651     663       1     660     678     699       1     654     666
     684       1     654     669     687       1     648     651     663       1
     648     657     675       1     852     843     855       1     852     846
     858       1     846     837     849       1     846     852     861       1
     843     852     861       1     837     846     858       1     834     843
     855       1     831     813     834       1     822     804     825       1
     822     810     828       1     816     801     819       1     816     837
     849       1     810     822     840       1     804     786     807       1
     804     822     840       1     798     813     831       1     795     777
     798       1     789     774     792       1     789     810     828       1
     786     804     825       1     780     765     783       1     780     801
     819       1     768     759     771       1     768     786     807       1
     762     774     792       1     762     777     795       1     756     759
     771       1     756     765     783       1     960     951     963       1
     960     954     966       1     954     945     957       1     954     960
     969       1     951     960     969       1     945     954     966       1
     942     951     963       1     939     921     942       1     930     912
     933       1     930     918     936       1     924     909     927       1
     924     945     957       1     918     930     948       1     912     894
     915       1     912     930     948       1     906     921     939       1
     903     885     906       1     897     882     900       1     897     918
     936       1     894     912     933       1     888     873     891       1
     888     909     927       1     876     867     879       1     876     894
     915       1     870     882     900       1     870     885     903       1
     864     867     879       1     864     873     891       1    1068    1059
    1071       1    1068    1062    1074       1    1062    1053    1065       1
    1062    1068    1077       1    1059    1068    1077       1    1053    1062
    1074       1    1050    1059    1071       1    1047    1029    1050       1
    1038    1020    1041       1    1038    1026    1044       1    1032    1017
    1035       1    1032    1053    1065       1    1026    1038    1056       1
    1020    1002    1023       1    1020    1038    1056       1    1014    1029
    1047       1    1011     993    1014       1    1005     990    1008       1
    1005    1026    1044       1    1002    1020    1041       1     996     981
     999       1     996    1017    1035       1     984     975     987       1
     984    1002    1023       1     978     990    1008       1     978     993
    1011       1     972     975     987       1     972     981     999       1
    1176    1167    1179       1    1176    1170    1182       1    1170    1161
    1173       1    1170    1176    1185       1    1167    1176    1185       1
    1161    1170    1182       1    1158    1167    1179       1    1155    1137
    1158       1    1146    1128    1149       1    1146    1134    1152       1
    1140    1125    1143       1    1140    1161    1173       1    1134    1146
    1164       1    1128    1110    1131       1    1128    1146    1164       1
    1122    1137    1155       1    1119    1101    1122       1    1113    1098
    1116       1    1113    1134    1152       1    1110    1128    1149       1
    1104    1089    1107       1    1104    1125    1143       1    1092    1083
    1095       1    1092    1110    1131       1    1086    1098    1116       1
    1086    1101    1119       1    1080    1083    1095       1    1080    1089
    1107       1    1284    1275    1287       1    1284    1278    1290       1
    1278    1269    1281       1    1278    1284    1293       1    1275    1284
    1293       1    1269    1278    1290       1    1266    1275    1287       1
    1263    1245    1266       1    1254    1236    1257       1    1254    1242
    1260       1    1248    1233    1251       1    1248    1269    1281       1
    1242    1254    1272       1    1236    1218    1239       1    1236    1254
    1272       1    1230    1245    1263       1    1227    1209    1230       1
    1221    1206    1224       1    1221    1242    1260       1    1218    1236
    1257       1    1212    1197    1215       1    1212    1233    1251       1
    1200    1191    1203       1    1200    1218    1239       1    1194    1206
    1224       1    1194    1209    1227       1    1188    1191    1203       1
    1188    1197    1215       1    1392    1383    1395       1    1392    1386
    1398       1    1386    1377    1389       1    1386    1392    1401       1
    1383    1392    1401       1    1377    1386    1398       1    1374    1383
    1395       1    1371    1353    1374       1    1362    1344    1365       1
    1362    1350    1368       1    1356    1341    1359       1    1356    1377
    1389       1    1350    1362    1380       1    1344    1326    1347       1
    1344    1362    1380       1    1338    1353    1371       1    1335    1317
    1338       1    1329    1314    1332       1    1329    1350    1368       1
    1326    1344    1365       1    1320    1305    1323       1    1320    1341
    1359       1    1308    1299    1311       1    1308    1326    1347       1
    1302    1314    1332       1    1302    1317    1335       1    1296    1299
    1311       1    1296    1305    1323       1    1500    1491    1503       1
    1500    1494    1506       1    1494    1485    1497       1    1494    1500
    1509       1    1491    1500    1509       1    1485    1494    1506       1
    1482    1491    1503       1    1479    1461    1482       1    1470    1452
    1473       1    1470    1458    1476       1    1464    1449    1467       1
    1464    1485    1497       1    1458    1470    1488       1    1452    1434
    1455       1    1452    1470    1488       1    1446    1461    1479       1
    1443    1425    1446       1    1437    1422    1440       1    1437    1458
    1476       1    1434    1452    1473       1    1428    1413    1431       1
    1428    1449    1467       1    1416    1407    1419       1    1416    1434
    1455       1    1410    1422    1440       1    1410    1425    1443       1
    1404    1407    1419       1    1404    1413    1431       1    1608    1599
    1611       1    1608    1602    1614       1    1602    1593    1605       1
    1602    1608    1617       1    1599    1608    1617       1    1593    1602
    1614       1    1590    1599    1611       1    1587    1569    1590       1
    1578    1560    1581       1    1578    1566    1584       1    1572    1557
    1575       1    1572    1593    1605       1    1566    1578    1596       1
    1560    1542    1563       1    1560    1578    1596       1    1554    1569
    1587       1    1551    1533    1554       1    1545    1530    1548       1
    1545    1566    1584       1    1542    1560    1581       1    1536    1521
    1539       1    1536    1557    1575       1    1524    1515    1527       1
    1524    1542    1563       1    1518    1530    1548       1    1518    1533
    1551       1    1512    1515    1527       1    1512    1521    1539       1
    1716    1707    1719       1    1716    1710    1722       1    1710    1701
    1713       1    1710    1716    1725       1    1707    1716    1725       1
    1701    1710    1722       1    1698    1707    1719       1    1695    1677
    1698       1    1686    1668    1689       1    1686    1674    1692       1
    1680    1665    1683       1    1680    1701    1713       1    1674    1686
    1704       1    1668    1650    1671       1    1668    1686    1704       1
    1662    1677    1695       1    1659    1641    1662       1    1653    1638
    1656       1    1653    1674    1692       1    1650    1668    1689       1
    1644    1629    1647       1    1644    1665    1683       1    1632    1623
    1635       1    1632    1650    1671       1    1626    1638    1656       1
    1626    1641    1659       1    1620    1623    1635       1    1620    1629
    1647       1    1824    1815    1827       1    1824    1818    1830       1
    1818    1809    1821       1    1818    1824    1833       1    1815    1824
    1833       1    1809    1818    1830       1    1806    1815    1827       1
    1803    1785    1806       1    1794    1776    1797       1    1794    1782
    1800       1    1788    1773    1791       1    1788    1809    1821       1
    1782    1794    1812       1    1776    1758    1779       1    1776    1794
    1812       1    1770    1785    1803       1    1767    1749    1770       1
    1761    1746    1764       1    1761    1782    1800       1    1758    1776
    1797       1    1752    1737    1755       1    1752    1773    1791       1
    1740    1731    1743       1    1740    1758    1779       1    1734    1746
    1764       1    1734    1749    1767       1    1728    1731    1743       1
    1728    1737    1755       1    1932    1923    1935       1    1932    1926
    1938       1    1926    1917    1929       1    1926    1932    1941       1
    1923    1932    1941       1    1917    1926    1938       1    1914    1923
    1935       1    1911    1893    1914       1    1902    1884    1905       1
    1902    1890    1908       1    1896    1881    1899       1    1896    1917
    1929       1    1890    1902    1920       1    1884    1866    1887       1
    1884    1902    1920       1    1878    1893    1911       1    1875    1857
    1878       1    1869    1854    1872       1    1869    1890    1908       1
    1866    1884    1905       1    1860    1845    1863       1    1860    1881
    1899       1    1848    1839    1851       1    1848    1866    1887       1
    1842    1854    1872       1    1842    1857    1875       1    1836    1839
    1851       1    1836    1845    1863       1    2040    2031    2043       1
    2040    2034    2046       1    2034    2025    2037       1    2034    2040
    2049       1    2031    2040    2049       1    2025    2034    2046       1
    2022    2031    2043       1    2019    2001    2022       1    2010    1992
    2013       1    2010    1998    2016       1    2004    1989    2007       1
    2004    2025    2037       1    1998    2010    2028       1    1992    1974
    1995       1    1992    2010    2028       1    1986    2001    2019       1
    1983    1965    1986       1    1977    1962    1980       1    1977    1998
    2016       1    1974    1992    2013       1    1968    1953    1971       1
    1968    1989    2007       1    1956    1947    1959       1    1956    1974
    1995       1    1950    1962    1980       1    1950    1965    1983       1
    1944    1947    1959       1    1944    1953    1971       1    2148    2139
    2151       1    2148    2142    2154       1    2142    2133    2145       1
    2142    2148    2157       1    2139    2148    2157       1    2133    2142
    2154       1    2130    2139    2151       1    2127    2109    2130       1
    2118    2100    2121       1    2118    2106    2124       1    2112    2097
    2115       1    2112    2133    2145       1    2106    2118    2136       1
    2100    2082    2103       1    2100    2118    2136       1    2094    2109
    2127       1    2091    2073    2094       1    2085    2070    2088       1
    2085    2106    2124       1    2082    2100    2121       1    2076    2061
    2079       1    2076    2097    2115       1    2064    2055    2067       1
    2064    2082    2103       1    2058    2070    2088       1    2058    2073
    2091       1    2052    2055    2067       1    2052    2061    2079       1
    2256    2247    2259       1    2256    2250    2262       1    2250    2241
    2253       1    2250    2256    2265       1    2247    2256    2265       1
    2241    2250    2262       1    2238    2247    2259       1    2235    2217
    2238       1    2226    2208    2229       1    2226    2214    2232       1
    2220    2205    2223       1    2220    2241    2253       1    2214    2226
    2244       1    2208    2190    2211       1    2208    2226    2244       1
    2202    2217    2235       1    2199    2181    2202       1    2193    2178
    2196       1    2193    2214    2232       1    2190    2208    2229       1
    2184    2169    2187       1    2184    2205    2223       1    2172    2163
    2175       1    2172    2190    2211       1    2166    2178    2196       1
    2166    2181    2199       1    2160    2163    2175       1    2160    2169
    2187       1    2364    2355    2367       1    2364    2358    2370       1
    2358    2349    2361       1    2358    2364    2373       1    2355    2364
    2373       1    2349    2358    2370       1    2346    2355    2367       1
    2343    2325    2346       1    2334    2316    2337       1    2334    2322
    2340       1    2328    2313    2331       1    2328    2349    2361       1
    2322    2334    2352       1    2316    2298    2319       1    2316    2334
    2352       1    2310    2325    2343       1    2307    2289    2310       1
    2301    2286    2304       1    2301    2322    2340       1    2298    2316
    2337       1    2292    2277    2295       1    2292    2313    2331       1
    2280    2271    2283       1    2280    2298    2319       1    2274    2286
    2304       1    2274    2289    2307       1    2268    2271    2283       1
    2268    2277    2295       1    2472    2463    2475       1    2472    2466
    2478       1    2466    2457    2469       1    2466    2472    2481       1
    2463    2472    2481       1    2457    2466    2478       1    2454    2463
    2475       1    2451    2433    2454       1    2442    2424    2445       1
    2442    2430    2448       1    2436    2421    2439       1    2436    2457
    2469       1    2430    2442    2460       1    2424    2406    2427       1
    2424    2442    2460       1    2418    2433    2451       1    2415    2397
    2418       1    2409    2394    2412       1    2409    2430    2448       1
    2406    2424    2445       1    2400    2385    2403       1    2400    2421
    2439       1    2388    2379    2391       1    2388    2406    2427       1
    2382    2394    2412       1    2382    2397    2415       1    2376    2379
    2391       1    2376    2385    2403       1    2580    2571    2583       1
    2580    2574    2586       1    2574    2565    2577       1    2574    2580
    2589       1    2571    2580    2589       1    2565    2574    2586       1
    2562    2571    2583       1    2559    2541    2562       1    2550    2532
    2553       1    2550    2538    2556       1    2544    2529    2547       1
    2544    2565    2577       1    2538    2550    2568       1    2532    2514
    2535       1    2532    2550    2568       1    2526    2541    2559       1
    2523    2505    2526       1    2517    2502    2520       1    2517    2538
    2556       1    2514    2532    2553       1    2508    2493    2511       1
    2508    2529    2547       1    2496    2487    2499       1    2496    2514
    2535       1    2490    2502    2520       1    2490    2505    2523       1
    2484    2487    2499       1    2484    2493    2511       1    2688    2679
    2691       1    2688    2682    2694       1    2682    2673    2685       1
    2682    2688    2697       1    2679    2688    2697       1    2673    2682
    2694       1    2670    2679    2691       1    2667    2649    2670       1
    2658    2640    2661       1    2658    2646    2664       1    2652    2637
    2655       1    2652    2673    2685       1    2646    2658    2676       1
    2640    2622    2643       1    2640    2658    2676       1    2634    2649
    2667       1    2631    2613    2634       1    2625    2610    2628       1
    2625    2646    2664       1    2622    2640    2661       1    2616    2601
    2619       1    2616    2637    2655       1    2604    2595    2607       1
    2604    2622    2643       1    2598    2610    2628       1    2598    2613
    2631       1    2592    2595    2607       1    2592    2601    2619       1
    2796    2787    2799       1    2796    2790    2802       1    2790    2781
    2793       1    2790    2796    2805       1    2787    2796    2805       1
    2781    2790    2802       1    2778    2787    2799       1    2775    2757
    2778       1    2766    2748    2769       1    2766    2754    2772       1
    2760    2745    2763       1    2760    2781    2793       1    2754    2766
    2784       1    2748    2730    2751       1    2748    2766    2784       1
    2742    2757    2775       1    2739    2721    2742       1    2733    2718
    2736       1    2733    2754    2772       1    2730    2748    2769       1
    2724    2709    2727       1    2724    2745    2763       1    2712    2703
    2715       1    2712    2730    2751       1    2706    2718    2736       1
    2706    2721    2739       1    2700    2703    2715       1    2700    2709
    2727       1    2904    2895    2907       1    2904    2898    2910       1
    2898    2889    2901       1    2898    2904    2913       1    2895    2904
    2913       1    2889    2898    2910       1    2886    2895    2907       1
    2883    2865    2886       1    2874    2856    2877       1    2874    2862
    2880       1    2868    2853    2871       1    2868    2889    2901       1
    2862    2874    2892       1    2856    2838    2859       1    2856    2874
    2892       1    2850    2865    2883       1    2847    2829    2850       1
    2841    2826    2844       1    2841    2862    2880       1    2838    2856
    2877       1    2832    2817    2835       1    2832    2853    2871       1
    2820    2811    2823       1    2820    2838    2859       1    2814    2826
    2844       1    2814    2829    2847       1    2808    2811    2823       1
    2808    2817    2835       1    3012    3003    3015       1    3012    3006
    3018       1    3006    2997    3009       1    3006    3012    3021       1
    3003    3012    3021       1    2997    3006    3018       1    2994    3003
    3015       1    2991    2973    2994       1    2982    2964    2985       1
    2982    2970    2988       1    2976    2961    2979       1    2976    2997
    3009       1    2970    2982    3000       1    2964    2946    2967       1
    2964    2982    3000       1    2958    2973    2991       1    2955    2937
    2958       1    2949    2934    2952       1    2949    2970    2988       1
    2946    2964    2985       1    2940    2925    2943       1    2940    2961
    2979       1    2928    2919    2931       1    2928    2946    2967       1
    2922    2934    2952       1    2922    2937    2955       1    2916    2919
    2931       1    2916    2925    2943       1    3120    3111    3123       1
    3120    3114    3126       1    3114    3105    3117       1    3114    3120
    3129       1    3111    3120    3129       1    3105    3114    3126       1
    3102    3111    3123       1    3099    3081    3102       1    3090    3072
    3093       1    3090    3078    3096       1    3084    3069    3087       1
    3084    3105    3117       1    3078    3090    3108       1    3072    3054
    3075       1    3072    3090    3108       1    3066    3081    3099       1
    3063    3045    3066       1    3057    3042    3060       1    3057    3078
    3096       1    3054    3072    3093       1    3048    3033    3051       1
    3048    3069    3087       1    3036    3027    3039       1    3036    3054
    3075       1    3030    3042    3060       1    3030    3045    3063       1
    3024    3027    3039       1    3024    3033    3051       1    3228    3219
    3231       1    3228    3222    3234       1    3222    3213    3225       1
    3222    3228    3237       1    3219    3228    3237       1    3213    3222
    3234       1    3210    3219    3231       1    3207    3189    3210       1
    3198    3180    3201       1    3198    3186    3204       1    3192    3177
    3195       1    3192    3213    3225       1    3186    3198    3216       1
    3180    3162    3183       1    3180    3198    3216       1    3174    3189
    3207       1    3171    3153    3174       1    3165    3150    3168       1
    3165    3186    3204       1    3162    3180    3201       1    3156    3141
    3159       1    3156    3177    3195       1    3144    3135    3147       1
    3144    3162    3183       1    3138    3150    3168       1    3138    3153
    3171       1    3132    3135    3147       1    3132    3141    3159       1
    3336    3327    3339       1    3336    3330    3342       1    3330    3321
    3333       1    3330    3336    3345       1    3327    3336    3345       1
    3321    3330    3342       1    3318    3327    3339       1    3315    3297
    3318       1    3306    3288    3309       1    3306    3294    3312       1
    3300    3285    3303       1    3300    3321    3333       1    3294    3306
    3324       1    3288    3270    3291       1    3288    3306    3324       1
    3282    3297    3315       1    3279    3261    3282       1    3273    3258
    3276       1    3273    3294    3312       1    3270    3288    3309       1
    3264    3249    3267       1    3264    3285    3303       1    3252    3243
    3255       1    3252    3270    3291       1    3246    3258    3276       1
    3246    3261    3279       1    3240    3243    3255       1    3240    3249
    3267       1    3444    3435    3447       1    3444    3438    3450       1
    3438    3429    3441       1    3438    3444    3453       1    3435    3444
    3453       1    3429    3438    3450       1    3426    3435    3447       1
    3423    3405    3426       1    3414    3396    3417       1    3414    3402
    3420       1    3408    3393    3411       1    3408    3429    3441       1
    3402    3414    3432       1    3396    3378    3399       1    3396    3414
    3432       1    3390    3405    3423       1    3387    3369    3390       1
    3381    3366    3384       1    3381    3402    3420       1    3378    3396
    3417       1    3372    3357    3375       1    3372    3393    3411       1
    3360    3351    3363       1    3360    3378    3399       1    3354    3366
    3384       1    3354    3369    3387       1    3348    3351    3363       1
    3348    3357    3375       1    3552    3543    3555       1    3552    3546
    3558       1    3546    3537    3549       1    3546    3552    3561       1
    3543    3552    3561       1    3537    3546    3558       1    3534    3543
    3555       1    3531    3513    3534       1    3522    3504    3525       1
    3522    3510    3528       1    3516    3501    3519       1    3516    3537
    3549       1    3510    3522    3540       1    3504    3486    3507       1
    3504    3522    3540       1    3498    3513    3531       1    3495    3477
    3498       1    3489    3474    3492       1    3489    3510    3528       1
    3486    3504    3525       1    3480    3465    3483       1    3480    3501
    3519       1    3468    3459    3471       1    3468    3486    3507       1
    3462    3474    3492       1    3462    3477    3495       1    3456    3459
    3471       1    3456    3465    3483       1    3660    3651    3663       1
    3660    3654    3666       1    3654    3645    3657       1    3654    3660
    3669       1    3651    3660    3669       1    3645    3654    3666       1
    3642    3651    3663       1    3639    3621    3642       1    3630    3612
    3633       1    3630    3618    3636       1    3624    3609    3627       1
    3624    3645    3657       1    3618    3630    3648       1    3612    3594
    3615       1    3612    3630    3648       1    3606    3621    3639       1
    3603    3585    3606       1    3597    3582    3600       1    3597    3618
    3636       1    3594    3612    3633       1    3588    3573    3591       1
    3588    3609    3627       1    3576    3567    3579       1    3576    3594
    3615       1    3570    3582    3600       1    3570    3585    3603       1
    3564    3567    3579       1    3564    3573    3591       1    3768    3759
    3771       1    3768    3762    3774       1    3762    3753    3765       1
    3762    3768    3777       1    3759    3768    3777       1    3753    3762
    3774       1    3750    3759    3771       1    3747    3729    3750       1
    3738    3720    3741       1    3738    3726    3744       1    3732    3717
    3735       1    3732    3753    3765       1    3726    3738    3756       1
    3720    3702    3723       1    3720    3738    3756       1    3714    3729
    3747       1    3711    3693    3714       1    3705    3690    3708       1
    3705    3726    3744       1    3702    3720    3741       1    3696    3681
    3699       1    3696    3717    3735       1    3684    3675    3687       1
    3684    3702    3723       1    3678    3690    3708       1    3678    3693
    3711       1    3672    3675    3687       1    3672    3681    3699       1
    3876    3867    3879       1    3876    3870    3882       1    3870    3861
    3873       1    3870    3876    3885       1    3867    3876    3885       1
    3861    3870    3882       1    3858    3867    3879       1    3855    3837
    3858       1    3846    3828    3849       1    3846    3834    3852       1
    3840    3825    3843       1    3840    3861    3873       1    3834    3846
    3864       1    3828    3810    3831       1    3828    3846    3864       1
    3822    3837    3855       1    3819    3801    3822       1    3813    3798
    3816       1    3813    3834    3852       1    3810    3828    3849       1
    3804    3789    3807       1    3804    3825    3843       1    3792    3783
    3795       1    3792    3810    3831       1    3786    3798    3816       1
    3786    3801    3819       1    3780    3783    3795       1    3780    3789
    3807       1    3984    3975    3987       1    3984    3978    3990       1
    3978    3969    3981       1    3978    3984    3993       1    3975    3984
    3993       1    3969    3978    3990       1    3966    3975    3987       1
    3963    3945    3966       1    3954    3936    3957       1    3954    3942
    3960       1    3948    3933    3951       1    3948    3969    3981       1
    3942    3954    3972       1    3936    3918    3939       1    3936    3954
    3972       1    3930    3945    3963       1    3927    3909    3930       1
    3921    3906    3924       1    3921    3942    3960       1    3918    3936
    3957       1    3912    3897    3915       1    3912    3933    3951       1
    3900    3891    3903       1    3900    3918    3939       1    3894    3906
    3924       1    3894    3909    3927       1    3888    3891    3903       1
    3888    3897    3915       1    4092    4083    4095       1    4092    4086
    4098       1    4086    4077    4089       1    4086    4092    4101       1
    4083    4092    4101       1    4077    4086    4098       1    4074    4083
    4095       1    4071    4053    4074       1    4062    4044    4065       1
    4062    4050    4068       1    4056    4041    4059       1    4056    4077
    4089       1    4050    4062    4080       1    4044    4026    4047       1
    4044    4062    4080       1    4038    4053    4071       1    4035    4017
    4038       1    4029    4014    4032       1    4029    4050    4068       1
    4026    4044    4065       1    4020    4005    4023       1    4020    4041
    4059       1    4008    3999    4011       1    4008    4026    4047       1
    4002    4014    4032       1    4002    4017    4035       1    3996    3999
    4011       1    3996    4005    4023       1    4200    4191    4203       1
    4200    4194    4206       1    4194    4185    4197       1    4194    4200
    4209       1    4191    4200    4209       1    4185    4194    4206       1
    4182    4191    4203       1    4179    4161    4182       1    4170    4152
    4173       1    4170    4158    4176       1    4164    4149    4167       1
    4164    4185    4197       1    4158    4170    4188       1    4152    4134
    4155       1    4152    4170    4188       1    4146    4161    4179       1
    4143    4125    4146       1    4137    4122    4140       1    4137    4158
    4176       1    4134    4152    4173       1    4128    4113    4131       1
    4128    4149    4167       1    4116    4107    4119       1    4116    4134
    4155       1    4110    4122    4140       1    4110    4125    4143       1
    4104    4107    4119       1    4104    4113    4131       1    4308    4299
    4311       1    4308    4302    4314       1    4302    4293    4305       1
    4302    4308    4317       1    4299    4308    4317       1    4293    4302
    4314       1    4290    4299    4311       1    4287    4269    4290       1
    4278    4260    4281       1    4278    4266    4284       1    4272    4257
    4275       1    4272    4293    4305       1    4266    4278    4296       1
    4260    4242    4263       1    4260    4278    4296       1    4254    4269
    4287       1    4251    4233    4254       1    4245    4230    4248       1
    4245    4266    4284       1    4242    4260    4281       1    4236    4221
    4239       1    4236    4257    4275       1    4224    4215    4227       1
    4224    4242    4263       1    4218    4230    4248       1    4218    4233
    4251       1    4212    4215    4227       1    4212    4221    4239       1
    4416    4407    4419       1    4416    4410    4422       1    4410    4401
    4413       1    4410    4416    4425       1    4407    4416    4425       1
    4401    4410    4422       1    4398    4407    4419       1    4395    4377
    4398       1    4386    4368    4389       1    4386    4374    4392       1
    4380    4365    4383       1    4380    4401    4413       1    4374    4386
    4404       1    4368    4350    4371       1    4368    4386    4404       1
    4362    4377    4395       1    4359    4341    4362       1    4353    4338
    4356       1    4353    4374    4392       1    4350    4368    4389       1
    4344    4329    4347       1    4344    4365    4383       1    4332    4323
    4335       1    4332    4350    4371       1    4326    4338    4356       1
    4326    4341    4359       1    4320    4323    4335       1    4320    4329
    4347       1    4524    4515    4527       1    4524    4518    4530       1
    4518    4509    4521       1    4518    4524    4533       1    4515    4524
    4533       1    4509    4518    4530       1    4506    4515    4527       1
    4503    4485    4506       1    4494    4476    4497       1    4494    4482
    4500       1    4488    4473    4491       1    4488    4509    4521       1
    4482    4494    4512       1    4476    4458    4479       1    4476    4494
    4512       1    4470    4485    4503       1    4467    4449    4470       1
    4461    4446    4464       1    4461    4482    4500       1    4458    4476
    4497       1    4452    4437    4455       1    4452    4473    4491       1
    4440    4431    4443       1    4440    4458    4479       1    4434    4446
    4464       1    4434    4449    4467       1    4428    4431    4443       1
    4428    4437    4455       1    4632    4623    4635       1    4632    4626
    4638       1    4626    4617    4629       1    4626    4632    4641       1
    4623    4632    4641       1    4617    4626    4638       1    4614    4623
    4635       1    4611    4593    4614       1    4602    4584    4605       1
    4602    4590    4608       1    4596    4581    4599       1    4596    4617
    4629       1    4590    4602    4620       1    4584    4566    4587       1
    4584    4602    4620       1    4578    4593    4611       1    4575    4557
    4578       1    4569    4554    4572       1    4569    4590    4608       1
    4566    4584    4605       1    4560    4545    4563       1    4560    4581
    4599       1    4548    4539    4551       1    4548    4566    4587       1
    4542    4554    4572       1    4542    4557    4575       1    4536    4539
    4551       1    4536    4545    4563       1    4740    4731    4743       1
    4740    4734    4746       1    4734    4725    4737       1    4734    4740
    4749       1    4731    4740    4749       1    4725    4734    4746       1
    4722    4731    4743       1    4719    4701    4722       1    4710    4692
    4713       1    4710    4698    4716       1    4704    4689    4707       1
    4704    4725    4737       1    4698    4710    4728       1    4692    4674
    4695       1    4692    4710    4728       1    4686    4701    4719       1
    4683    4665    4686       1    4677    4662    4680       1    4677    4698
    4716       1    4674    4692    4713       1    4668    4653    4671       1
    4668    4689    4707       1    4656    4647    4659       1    4656    4674
    4695       1    4650    4662    4680       1    4650    4665    4683       1
    4644    4647    4659       1    4644    4653    4671       1    4848    4839
    4851       1    4848    4842    4854       1    4842    4833    4845       1
    4842    4848    4857       1    4839    4848    4857       1    4833    4842
    4854       1    4830    4839    4851       1    4827    4809    4830       1
    4818    4800    4821       1    4818    4806    4824       1    4812    4797
    4815       1    4812    4833    4845       1    4806    4818    4836       1
    4800    4782    4803       1    4800    4818    4836       1    4794    4809
    4827       1    4791    4773    4794       1    4785    4770    4788       1
    4785    4806    4824       1    4782    4800    4821       1    4776    4761
    4779       1    4776    4797    4815       1    4764    4755    4767       1
    4764    4782    4803       1    4758    4770    4788       1    4758    4773
    4791       1    4752    4755    4767       1    4752    4761    4779       1
    4956    4947    4959       1    4956    4950    4962       1    4950    4941
    4953       1    4950    4956    4965       1    4947    4956    4965       1
    4941    4950    4962       1    4938    4947    4959       1    4935    4917
    4938       1    4926    4908    4929       1    4926    4914    4932       1
    4920    4905    4923       1    4920    4941    4953       1    4914    4926
    4944       1    4908    4890    4911       1    4908    4926    4944       1
    4902    4917    4935       1    4899    4881    4902       1    4893    4878
    4896       1    4893    4914    4932       1    4890    4908    4929       1
    4884    4869    4887       1    4884    4905    4923       1    4872    4863
    4875       1    4872    4890    4911       1    4866    4878    4896       1
    4866    4881    4899       1    4860    4863    4875       1    4860    4869
    4887       1    5064    5055    5067       1    5064    5058    5070       1
    5058    5049    5061       1    5058    5064    5073       1    5055    5064
    5073       1    5049    5058    5070       1    5046    5055    5067       1
    5043    5025    5046       1    5034    5016    5037       1    5034    5022
    5040       1    5028    5013    5031       1    5028    5049    5061       1
    5022    5034    5052       1    5016    4998    5019       1    5016    5034
    5052       1    5010    5025    5043       1    5007    4989    5010       1
    5001    4986    5004       1    5001    5022    5040       1    4998    5016
    5037       1    4992    4977    4995       1    4992    5013    5031       1
    4980    4971    4983       1    4980    4998    5019       1    4974    4986
    5004       1    4974    4989    5007       1    4968    4971    4983       1
    4968    4977    4995       1    5172    5163    5175       1    5172    5166
    5178       1    5166    5157    5169       1    5166    5172    5181       1
    5163    5172    5181       1    5157    5166    5178       1    5154    5163
    5175       1    5151    5133    5154       1    5142    5124    5145       1
    5142    5130    5148       1    5136    5121    5139       1    5136    5157
    5169       1    5130    5142    5160       1    5124    5106    5127       1
    5124    5142    5160       1    5118    5133    5151       1    5115    5097
    5118       1    5109    5094    5112       1    5109    5130    5148       1
    5106    5124    5145       1    5100    5085    5103       1    5100    5121
    5139       1    5088    5079    5091       1    5088    5106    5127       1
    5082    5094    5112       1    5082    5097    5115       1    5076    5079
    5091       1    5076    5085    5103       1    5280    5271    5283       1
    5280    5274    5286       1    5274    5265    5277       1    5274    5280
    5289       1    5271    5280    5289       1    5265    5274    5286       1
    5262    5271    5283       1    5259    5241    5262       1    5250    5232
    5253       1    5250    5238    5256       1    5244    5229    5247       1
    5244    5265    5277       1    5238    5250    5268       1    5232    5214
    5235       1    5232    5250    5268       1    5226    5241    5259       1
    5223    5205    5226       1    5217    5202    5220       1    5217    5238
    5256       1    5214    5232    5253       1    5208    5193    5211       1
    5208    5229    5247       1    5196    5187    5199       1    5196    5214
    5235       1    5190    5202    5220       1    5190    5205    5223       1
    5184    5187    5199       1    5184    5193    5211       1    5388    5379
    5391       1    5388    5382    5394       1    5382    5373    5385       1
    5382    5388    5397       1    5379    5388    5397       1    5373    5382
    5394       1    5370    5379    5391       1    5367    5349    5370       1
    5358    5340    5361       1    5358    5346    5364       1    5352    5337
    5355       1    5352    5373    5385       1    5346    5358    5376       1
    5340    5322    5343       1    5340    5358    5376       1    5334    5349
    5367       1    5331    5313    5334       1    5325    5310    5328       1
    5325    5346    5364       1    5322    5340    5361       1    5316    5301
    5319       1    5316    5337    5355       1    5304    5295    5307       1
    5304    5322    5343       1    5298    5310    5328       1    5298    5313
    5331       1    5292    5295    5307       1    5292    5301    5319       1
    5496    5487    5499       1    5496    5490    5502       1    5490    5481
    5493       1    5490    5496    5505       1    5487    5496    5505       1
    5481    5490    5502       1    5478    5487    5499       1    5475    5457
    5478       1    5466    5448    5469       1    5466    5454    5472       1
    5460    5445    5463       1    5460    5481    5493       1    5454    5466
    5484       1    5448    5430    5451       1    5448    5466    5484       1
    5442    5457    5475       1    5439    5421    5442       1    5433    5418
    5436       1    5433    5454    5472       1    5430    5448    5469       1
    5424    5409    5427       1    5424    5445    5463       1    5412    5403
    5415       1    5412    5430    5451       1    5406    5418    5436       1
    5406    5421    5439       1    5400    5403    5415       1    5400    5409
    5427       1    5604    5595    5607       1    5604    5598    5610       1
    5598    5589    5601       1    5598    5604    5613       1    5595    5604
    5613       1    5589    5598    5610       1    5586    5595    5607       1
    5583    5565    5586       1    5574    5556    5577       1    5574    5562
    5580       1    5568    5553    5571       1    5568    5589    5601       1
    5562    5574    5592       1    5556    5538    5559       1    5556    5574
    5592       1    5550    5565    5583       1    5547    5529    5550       1
    5541    5526    5544       1    5541    5562    5580       1    5538    5556
    5577       1    5532    5517    5535       1    5532    5553    5571       1
    5520    5511    5523       1    5520    5538    5559       1    5514    5526
    5544       1    5514    5529    5547       1    5508    5511    5523       1
    5508    5517    5535       1    5712    5703    5715       1    5712    5706
    5718       1    5706    5697    5709       1    5706    5712    5721       1
    5703    5712    5721       1    5697    5706    5718       1    5694    5703
    5715       1    5691    5673    5694       1    5682    5664    5685       1
    5682    5670    5688       1    5676    5661    5679       1    5676    5697
    5709       1    5670    5682    5700       1    5664    5646    5667       1
    5664    5682    5700       1    5658    5673    5691       1    5655    5637
    5658       1    5649    5634    5652       1    5649    5670    5688       1
    5646    5664    5685       1    5640    5625    5643       1    5640    5661
    5679       1    5628    5619    5631       1    5628    5646    5667       1
    5622    5634    5652       1    5622    5637    5655       1    5616    5619
    5631       1    5616    5625    5643       1    5820    5811    5823       1
    5820    5814    5826       1    5814    5805    5817       1    5814    5820
    5829       1    5811    5820    5829       1    5805    5814    5826       1
    5802    5811    5823       1    5799    5781    5802       1    5790    5772
    5793       1    5790    5778    5796       1    5784    5769    5787       1
    5784    5805    5817       1    5778    5790    5808       1    5772    5754
    5775       1    5772    5790    5808       1    5766    5781    5799       1
    5763    5745    5766       1    5757    5742    5760       1    5757    5778
    5796       1    5754    5772    5793       1    5748    5733    5751       1
    5748    5769    5787       1    5736    5727    5739       1    5736    5754
    5775       1    5730    5742    5760       1    5730    5745    5763       1
    5724    5727    5739       1    5724    5733    5751       1
%FLAG ANGLES_WITHOUT_HYDROGEN                                                   
%FORMAT(10I8)                                                                   
      87      96      90       2      81      90      96       2      78      60
      81       2      78      87      96       2      60      78      87       2
      60      81      90       2      57      78      60       2      57      78
      87       2      48      66      54       2      45      60      78       2
      45      60      81       2      42      24      45       2      42      57
      78       2      33      54      66       2      30      12      33       2
      30      48      66       2      24      42      57       2      24      45
      60       2      21      42      24       2      21      42      57       2
      18       6      21       2      18      33      54       2      12      30
      48       2      12      33      18       2      12      33      54       2
       9      24      42       2       9      24      45       2       6       0
       9       2       6      18      33       2       6      21      42       2
       3       0       6       2       3       0       9       2       3      12
      30       2       3      12      33       2       0       3      12       2
       0       6      18       2       0       6      21       2       0       9
      24       2     195     204     198       2     189     198     204       2
     186     168     189       2     186     195     204       2     168     186
     195       2     168     189     198       2     165     186     168       2
     165     186     195       2     156     174     162       2     153     168
     186       2     153     168     189       2     150     132     153       2
     150     165     186       2     141     162     174       2     138     120
     141       2     138     156     174       2     132     150     165       2
     132     153     168       2     129     150     132       2     129     150
     165       2     126     114     129       2     126     141     162       2
     120     138     156       2     120     141     126       2     120     141
     162       2     117     132     150       2     117     132     153       2
     114     108     117       2     114     126     141       2     114     129
     150       2     111     108     114       2     111     108     117       2
     111     120     138       2     111     120     141       2     108     111
     120       2     108     114     126       2     108     114     129       2
     108     117     132       2     303     312     306       2     297     306
     312       2     294     276     297       2     294     303     312       2
     276     294     303       2     276     297     306       2     273     294
     276       2     273     294     303       2     264     282     270       2
     261     276     294       2     261     276     297       2     258     240
     261       2     258     273     294       2     249     270     282       2
     246     228     249       2     246     264     282       2     240     258
     273       2     240     261     276       2     237     258     240       2
     237     258     273       2     234     222     237       2     234     249
     270       2     228     246     264       2     228     249     234       2
     228     249     270       2     225     240     258       2     225     240
     261       2     222     216     225       2     222     234     249       2
     222     237     258       2     219     216     222       2     219     216
     225       2     219     228     246       2     219     228     249       2
     216     219     228       2     216     222     234       2     216     222
     237       2     216     225     240       2     411     420     414       2
     405     414     420       2     402     384     405       2     402     411
     420       2     384     402     411       2     384     405     414       2
     381     402     384       2     381     402     411       2     372     390
     378       2     369     384     402       2     369     384     405       2
     366     348     369       2     366     381     402       2     357     378
     390       2     354     336     357       2     354     372     390       2
     348     366     381       2     348     369     384       2     345     366
     348       2     345     366     381       2     342     330     345       2
     342     357     378       2     336     354     372       2     336     357
     342       2     336     357     378       2     333     348     366       2
     333     348     369       2     330     324     333       2     330     342
     357       2     330     345     366       2     327     324     330       2
     327     324     333       2     327     336     354       2     327     336
     357       2     324     327     336       2     324     330     342       2
     324     330     345       2     324     333     348       2     519     528
     522       2     513     522     528       2     510     492     513       2
     510     519     528       2     492     510     519       2     492     513
     522       2     489     510     492       2     489     510     519       2
     480     498     486       2     477     492     510       2     477     492
     513       2     474     456     477       2     474     489     510       2
     465     486     498       2     462     444     465       2     462     480
     498       2     456     474     489       2     456     477     492       2
     453     474     456       2     453     474     489       2     450     438
     453       2     450     465     486       2     444     462     480       2
     444     465     450       2     444     465     486       2     441     456
     474       2     441     456     477       2     438     432     441       2
     438     450     465       2     438     453     474       2     435     432
     438       2     435     432     441       2     435     444     462       2
     435     444     465       2     432     435     444       2     432     438
     450       2     432     438     453       2     432     441     456       2
     627     636     630       2     621     630     636       2     618     600
     621       2     618     627     636       2     600     618     627       2
     600     621     630       2     597     618     600       2     597     618
     627       2     588     606     594       2     585     600     618       2
     585     600     621       2     582     564     585       2     582     597
     618       2     573     594     606       2     570     552     573       2
     570     588     606       2     564     582     597       2     564     585
     600       2     561     582     564       2     561     582     597       2
     558     546     561       2     558     573     594       2     552     570
     588       2     552     573     558       2     552     573     594       2
     549     564     582       2     549     564     585       2     546     540
     549       2     546     558     573       2     546     561     582       2
     543     540     546       2     543     540     549       2     543     552
     570       2     543     552     573       2     540     543     552       2
     540     546     558       2     540     546     561       2     540     549
     564       2     735     744     738       2     729     738     744       2
     726     708     729       2     726     735     744       2     708     726
     735       2     708     729     738       2     705     726     708       2
     705     726     735       2     696     714     702       2     693     708
     726       2     693     708     729       2     690     672     693       2
     690     705     726       2     681     702     714       2     678     660
     681       2     678     696     714       2     672     690     705       2
     672     693     708       2     669     690     672       2     669     690
     705       2     666     654     669       2     666     681     702       2
     660     678     696       2     660     681     666       2     660     681
     702       2     657     672     690       2     657     672     693       2
     654     648     657       2     654     666     681       2     654     669
     690       2     651     648     654       2     651     648     657       2
     651     660     678       2     651     660     681       2     648     651
     660       2     648     654     666       2     648     654     669       2
     648     657     672       2     843     852     846       2     837     846
     852       2     834     816     837       2     834     843     852       2
     816     834     843       2     816     837     846       2     813     834
     816       2     813     834     843       2     804     822     810       2
     801     816     834       2     801     816     837       2     798     780
     801       2     798     813     834       2     789     810     822       2
     786     768     789       2     786     804     822       2     780     798
     813       2     780     801     816       2     777     798     780       2
     777     798     813       2     774     762     777       2     774     789
     810       2     768     786     804       2     768     789     774       2
     768     789     810       2     765     780     798       2     765     780
     801       2     762     756     765       2     762     774     789       2
     762     777     798       2     759     756     762       2     759     756
     765       2     759     768     786       2     759     768     789       2
     756     759     768       2     756     762     774       2     756     762
     777       2     756     765     780       2     951     960     954       2
     945     954     960       2     942     924     945       2     942     951
     960       2     924     942     951       2     924     945     954       2
     921     942     924       2     921     942     951       2     912     930
     918       2     909     924     942       2     909     924     945       2
     906     888     909       2     906     921     942       2     897     918
     930       2     894     876     897       2     894     912     930       2
     888     906     921       2     888     909     924       2     885     906
     888       2     885     906     921       2     882     870     885       2
     882     897     918       2     876     894     912       2     876     897
     882       2     876     897     918       2     873     888     906       2
     873     888     909       2     870     864     873       2     870     882
     897       2     870     885     906       2     867     864     870       2
     867     864     873       2     867     876     894       2     867     876
     897       2     864     867     876       2     864     870     882       2
     864     870     885       2     864     873     888       2    1059    1068
    1062       2    1053    1062    1068       2    1050    1032    1053       2
    1050    1059    1068       2    1032    1050    1059       2    1032    1053
    1062       2    1029    1050    1032       2    1029    1050    1059       2
    1020    1038    1026       2    1017    1032    1050       2    1017    1032
    1053       2    1014     996    1017       2    1014    1029    1050       2
    1005    1026    1038       2    1002     984    1005       2    1002    1020
    1038       2     996    1014    1029       2     996    1017    1032       2
     993    1014     996       2     993    1014    1029       2     990     978
     993       2     990    1005    1026       2     984    1002    1020       2
     984    1005     990       2     984    1005    1026       2     981     996
    1014       2     981     996    1017       2     978     972     981       2
     978     990    1005       2     978     993    1014       2     975     972
     978       2     975     972     981       2     975     984    1002       2
     975     984    1005       2     972     975     984       2     972     978
     990       2     972     978     993       2     972     981     996       2
    1167    1176    1170       2    1161    1170    1176       2    1158    1140
    1161       2    1158    1167    1176       2    1140    1158    1167       2
    1140    1161    1170       2    1137    1158    1140       2    1137    1158
    1167       2    1128    1146    1134       2    1125    1140    1158       2
    1125    1140    1161       2    1122    1104    1125       2    1122    1137
    1158       2    1113    1134    1146       2    1110    1092    1113       2
    1110    1128    1146       2    1104    1122    1137       2    1104    1125
    1140       2    1101    1122    1104       2    1101    1122    1137       2
    1098    1086    1101       2    1098    1113    1134       2    1092    1110
    1128       2    1092    1113    1098       2    1092    1113    1134       2
    1089    1104    1122       2    1089    1104    1125       2    1086    1080
    1089       2    1086    1098    1113       2    1086    1101    1122       2
    1083    1080    1086       2    1083    1080    1089       2    1083    1092
    1110       2    1083    1092    1113       2    1080    1083    1092       2
    1080    1086    1098       2    1080    1086    1101       2    1080    1089
    1104       2    1275    1284    1278       2    1269    1278    1284       2
    1266    1248    1269       2    1266    1275    1284       2    1248    1266
    1275       2    1248    1269    1278       2    1245    1266    1248       2
    1245    1266    1275       2    1236    1254    1242       2    1233    1248
    1266       2    1233    1248    1269       2    1230    1212    1233       2
    1230    1245    1266       2    1221    1242    1254       2    1218    1200
    1221       2    1218    1236    1254       2    1212    1230    1245       2
    1212    1233    1248       2    1209    1230    1212       2    1209    1230
    1245       2    1206    1194    1209       2    1206    1221    1242       2
    1200    1218    1236       2    1200    1221    1206       2    1200    1221
    1242       2    1197    1212    1230       2    1197    1212    1233       2
    1194    1188    1197       2    1194    1206    1221       2    1194    1209
    1230       2    1191    1188    1194       2    1191    1188    1197       2
    1191    1200    1218       2    1191    1200    1221       2    1188    1191
    1200       2    1188    1194    1206       2    1188    1194    1209       2
    1188    1197    1212       2    1383    1392    1386       2    1377    1386
    1392       2    1374    1356    1377       2    1374    1383    1392       2
    1356    1374    1383       2    1356    1377    1386       2    1353    1374
    1356       2    1353    1374    1383       2    1344    1362    1350       2
    1341    1356    1374       2    1341    1356    1377       2    1338    1320
    1341       2    1338    1353    1374       2    1329    1350    1362       2
    1326    1308    1329       2    1326    1344    1362       2    1320    1338
    1353       2    1320    1341    1356       2    1317    1338    1320       2
    1317    1338    1353       2    1314    1302    1317       2    1314    1329
    1350       2    1308    1326    1344       2    1308    1329    1314       2
    1308    1329    1350       2    1305    1320    1338       2    1305    1320
    1341       2    1302    1296    1305       2    1302    1314    1329       2
    1302    1317    1338       2    1299    1296    1302       2    1299    1296
    1305       2    1299    1308    1326       2    1299    1308    1329       2
    1296    1299    1308       2    1296    1302    1314       2    1296    1302
    1317       2    1296    1305    1320       2    1491    1500    1494       2
    1485    1494    1500       2    1482    1464    1485       2    1482    1491
    1500       2    1464    1482    1491       2    1464    1485    1494       2
    1461    1482    1464       2    1461    1482    1491       2    1452    1470
    1458       2    1449    1464    1482       2    1449    1464    1485       2
    1446    1428    1449       2    1446    1461    1482       2    1437    1458
    1470       2    1434    1416    1437       2    1434    1452    1470       2
    1428    1446    1461       2    1428    1449    1464       2    1425    1446
    1428       2    1425    1446    1461       2    1422    1410    1425       2
    1422    1437    1458       2    1416    1434    1452       2    1416    1437
    1422       2    1416    1437    1458       2    1413    1428    1446       2
    1413    1428    1449       2    1410    1404    1413       2    1410    1422
    1437       2    1410    1425    1446       2    1407    1404    1410       2
    1407    1404    1413       2    1407    1416    1434       2    1407    1416
    1437       2    1404    1407    1416       2    1404    1410    1422       2
    1404    1410    1425       2    1404    1413    1428       2    1599    1608
    1602       2    1593    1602    1608       2    1590    1572    1593       2
    1590    1599    1608       2    1572    1590    1599       2    1572    1593
    1602       2    1569    1590    1572       2    1569    1590    1599       2
    1560    1578    1566       2    1557    1572    1590       2    1557    1572
    1593       2    1554    1536    1557       2    1554    1569    1590       2
    1545    1566    1578       2    1542    1524    1545       2    1542    1560
    1578       2    1536    1554    1569       2    1536    1557    1572       2
    1533    1554    1536       2    1533    1554    1569       2    1530    1518
    1533       2    1530    1545    1566       2    1524    1542    1560       2
    1524    1545    1530       2    1524    1545    1566       2    1521    1536
    1554       2    1521    1536    1557       2    1518    1512    1521       2
    1518    1530    1545       2    1518    1533    1554       2    1515    1512
    1518       2    1515    1512    1521       2    1515    1524    1542       2
    1515    1524    1545       2    1512    1515    1524       2    1512    1518
    1530       2    1512    1518    1533       2    1512    1521    1536       2
    1707    1716    1710       2    1701    1710    1716       2    1698    1680
    1701       2    1698    1707    1716       2    1680    1698    1707       2
    1680    1701    1710       2    1677    1698    1680       2    1677    1698
    1707       2    1668    1686    1674       2    1665    1680    1698       2
    1665    1680    1701       2    1662    1644    1665       2    1662    1677
    1698       2    1653    1674    1686       2    1650    1632    1653       2
    1650    1668    1686       2    1644    1662    1677       2    1644    1665
    1680       2    1641    1662    1644       2    1641    1662    1677       2
    1638    1626    1641       2    1638    1653    1674       2    1632    1650
    1668       2    1632    1653    1638       2    1632    1653    1674       2
    1629    1644    1662       2    1629    1644    1665       2    1626    1620
    1629       2    1626    1638    1653       2    1626    1641    1662       2
    1623    1620    1626       2    1623    1620    1629       2    1623    1632
    1650       2    1623    1632    1653       2    1620    1623    1632       2
    1620    1626    1638       2    1620    1626    1641       2    1620    1629
    1644       2    1815    1824    1818       2    1809    1818    1824       2
    1806    1788    1809       2    1806    1815    1824       2    1788    1806
    1815       2    1788    1809    1818       2    1785    1806    1788       2
    1785    1806    1815       2    1776    1794    1782       2    1773    1788
    1806       2    1773    1788    1809       2    1770    1752    1773       2
    1770    1785    1806       2    1761    1782    1794       2    1758    1740
    1761       2    1758    1776    1794       2    1752    1770    1785       2
    1752    1773    1788       2    1749    1770    1752       2    1749    1770
    1785       2    1746    1734    1749       2    1746    1761    1782       2
    1740    1758    1776       2    1740    1761    1746       2    1740    1761
    1782       2    1737    1752    1770       2    1737    1752    1773       2
    1734    1728    1737       2    1734    1746    1761       2    1734    1749
    1770       2    1731    1728    1734       2    1731    1728    1737       2
    1731    1740    1758       2    1731    1740    1761       2    1728    1731
    1740       2    1728    1734    1746       2    1728    1734    1749       2
    1728    1737    1752       2    1923    1932    1926       2    1917    1926
    1932       2    1914    1896    1917       2    1914    1923    1932       2
    1896    1914    1923       2    1896    1917    1926       2    1893    1914
    1896       2    1893    1914    1923       2    1884    1902    1890       2
    1881    1896    1914       2    1881    1896    1917       2    1878    1860
    1881       2    1878    1893    1914       2    1869    1890    1902       2
    1866    1848    1869       2    1866    1884    1902       2    1860    1878
    1893       2    1860    1881    1896       2    1857    1878    1860       2
    1857    1878    1893       2    1854    1842    1857       2    1854    1869
    1890       2    1848    1866    1884       2    1848    1869    1854       2
    1848    1869    1890       2    1845    1860    1878       2    1845    1860
    1881       2    1842    1836    1845       2    1842    1854    1869       2
    1842    1857    1878       2    1839    1836    1842       2    1839    1836
    1845       2    1839    1848    1866       2    1839    1848    1869       2
    1836    1839    1848       2    1836    1842    1854       2    1836    1842
    1857       2    1836    1845    1860       2    2031    2040    2034       2
    2025    2034    2040       2    2022    2004    2025       2    2022    2031
    2040       2    2004    2022    2031       2    2004    2025    2034       2
    2001    2022    2004       2    2001    2022    2031       2    1992    2010
    1998       2    1989    2004    2022       2    1989    2004    2025       2
    1986    1968    1989       2    1986    2001    2022       2    1977    1998
    2010       2    1974    1956    1977       2    1974    1992    2010       2
    1968    1986    2001       2    1968    1989    2004       2    1965    1986
    1968       2    1965    1986    2001       2    1962    1950    1965       2
    1962    1977    1998       2    1956    1974    1992       2    1956    1977
    1962       2    1956    1977    1998       2    1953    1968    1986       2
    1953    1968    1989       2    1950    1944    1953       2    1950    1962
    1977       2    1950    1965    1986       2    1947    1944    1950       2
    1947    1944    1953       2    1947    1956    1974       2    1947    1956
    1977       2    1944    1947    1956       2    1944    1950    1962       2
    1944    1950    1965       2    1944    1953    1968       2    2139    2148
    2142       2    2133    2142    2148       2    2130    2112    2133       2
    2130    2139    2148       2    2112    2130    2139       2    2112    2133
    2142       2    2109    2130    2112       2    2109    2130    2139       2
    2100    2118    2106       2    2097    2112    2130       2    2097    2112
    2133       2    2094    2076    2097       2    2094    2109    2130       2
    2085    2106    2118       2    2082    2064    2085       2    2082    2100
    2118       2    2076    2094    2109       2    2076    2097    2112       2
    2073    2094    2076       2    2073    2094    2109       2    2070    2058
    2073       2    2070    2085    2106       2    2064    2082    2100       2
    2064    2085    2070       2    2064    2085    2106       2    2061    2076
    2094       2    2061    2076    2097       2    2058    2052    2061       2
    2058    2070    2085       2    2058    2073    2094       2    2055    2052
    2058       2    2055    2052    2061       2    2055    2064    2082       2
    2055    2064    2085       2    2052    2055    2064       2    2052    2058
    2070       2    2052    2058    2073       2    2052    2061    2076       2
    2247    2256    2250       2    2241    2250    2256       2    2238    2220
    2241       2    2238    2247    2256       2    2220    2238    2247       2
    2220    2241    2250       2    2217    2238    2220       2    2217    2238
    2247       2    2208    2226    2214       2    2205    2220    2238       2
    2205    2220    2241       2    2202    2184    2205       2    2202    2217
    2238       2    2193    2214    2226       2    2190    2172    2193       2
    2190    2208    2226       2    2184    2202    2217       2    2184    2205
    2220       2    2181    2202    2184       2    2181    2202    2217       2
    2178    2166    2181       2    2178    2193    2214       2    2172    2190
    2208       2    2172    2193    2178       2    2172    2193    2214       2
    2169    2184    2202       2    2169    2184    2205       2    2166    2160
    2169       2    2166    2178    2193       2    2166    2181    2202       2
    2163    2160    2166       2    2163    2160    2169       2    2163    2172
    2190       2    2163    2172    2193       2    2160    2163    2172       2
    2160    2166    2178       2    2160    2166    2181       2    2160    2169
    2184       2    2355    2364    2358       2    2349    2358    2364       2
    2346    2328    2349       2    2346    2355    2364       2    2328    2346
    2355       2    2328    2349    2358       2    2325    2346    2328       2
    2325    2346    2355       2    2316    2334    2322       2    2313    2328
    2346       2    2313    2328    2349       2    2310    2292    2313       2
    2310    2325    2346       2    2301    2322    2334       2    2298    2280
    2301       2    2298    2316    2334       2    2292    2310    2325       2
    2292    2313    2328       2    2289    2310    2292       2    2289    2310
    2325       2    2286    2274    2289       2    2286    2301    2322       2
    2280    2298    2316       2    2280    2301    2286       2    2280    2301
    2322       2    2277    2292    2310       2    2277    2292    2313       2
    2274    2268    2277       2    2274    2286    2301       2    2274    2289
    2310       2    2271    2268    2274       2    2271    2268    2277       2
    2271    2280    2298       2    2271    2280    2301       2    2268    2271
    2280       2    2268    2274    2286       2    2268    2274    2289       2
    2268    2277    2292       2    2463    2472    2466       2    2457    2466
    2472       2    2454    2436    2457       2    2454    2463    2472       2
    2436    2454    2463       2    2436    2457    2466       2    2433    2454
    2436       2    2433    2454    2463       2    2424    2442    2430       2
    2421    2436    2454       2    2421    2436    2457       2    2418    2400
    2421       2    2418    2433    2454       2    2409    2430    2442       2
    2406    2388    2409       2    2406    2424    2442       2    2400    2418
    2433       2    2400    2421    2436       2    2397    2418    2400       2
    2397    2418    2433       2    2394    2382    2397       2    2394    2409
    2430       2    2388    2406    2424       2    2388    2409    2394       2
    2388    2409    2430       2    2385    2400    2418       2    2385    2400
    2421       2    2382    2376    2385       2    2382    2394    2409       2
    2382    2397    2418       2    2379    2376    2382       2    2379    2376
    2385       2    2379    2388    2406       2    2379    2388    2409       2
    2376    2379    2388       2    2376    2382    2394       2    2376    2382
    2397       2    2376    2385    2400       2    2571    2580    2574       2
    2565    2574    2580       2    2562    2544    2565       2    2562    2571
    2580       2    2544    2562    2571       2    2544    2565    2574       2
    2541    2562    2544       2    2541    2562    2571       2    2532    2550
    2538       2    2529    2544    2562       2    2529    2544    2565       2
    2526    2508    2529       2    2526    2541    2562       2    2517    2538
    2550       2    2514    2496    2517       2    2514    2532    2550       2
    2508    2526    2541       2    2508    2529    2544       2    2505    2526
    2508       2    2505    2526    2541       2    2502    2490    2505       2
    2502    2517    2538       2    2496    2514    2532       2    2496    2517
    2502       2    2496    2517    2538       2    2493    2508    2526       2
    2493    2508    2529       2    2490    2484    2493       2    2490    2502
    2517       2    2490    2505    2526       2    2487    2484    2490       2
    2487    2484    2493       2    2487    2496    2514       2    2487    2496
    2517       2    2484    2487    2496       2    2484    2490    2502       2
    2484    2490    2505       2    2484    2493    2508       2    2679    2688
    2682       2    2673    2682    2688       2    2670    2652    2673       2
    2670    2679    2688       2    2652    2670    2679       2    2652    2673
    2682       2    2649    2670    2652       2    2649    2670    2679       2
    2640    2658    2646       2    2637    2652    2670       2    2637    2652
    2673       2    2634    2616    2637       2    2634    2649    2670       2
    2625    2646    2658       2    2622    2604    2625       2    2622    2640
    2658       2    2616    2634    2649       2    2616    2637    2652       2
    2613    2634    2616       2    2613    2634    2649       2    2610    2598
    2613       2    2610    2625    2646       2    2604    2622    2640       2
    2604    2625    2610       2    2604    2625    2646       2    2601    2616
    2634       2    2601    2616    2637       2    2598    2592    2601       2
    2598    2610    2625       2    2598    2613    2634       2    2595    2592
    2598       2    2595    2592    2601       2    2595    2604    2622       2
    2595    2604    2625       2    2592    2595    2604       2    2592    2598
    2610       2    2592    2598    2613       2    2592    2601    2616       2
    2787    2796    2790       2    2781    2790    2796       2    2778    2760
    2781       2    2778    2787    2796       2    2760    2778    2787       2
    2760    2781    2790       2    2757    2778    2760       2    2757    2778
    2787       2    2748    2766    2754       2    2745    2760    2778       2
    2745    2760    2781       2    2742    2724    2745       2    2742    2757
    2778       2    2733    2754    2766       2    2730    2712    2733       2
    2730    2748    2766       2    2724    2742    2757       2    2724    2745
    2760       2    2721    2742    2724       2    2721    2742    2757       2
    2718    2706    2721       2    2718    2733    2754       2    2712    2730
    2748       2    2712    2733    2718       2    2712    2733    2754       2
    2709    2724    2742       2    2709    2724    2745       2    2706    2700
    2709       2    2706    2718    2733       2    2706    2721    2742       2
    2703    2700    2706       2    2703    2700    2709       2    2703    2712
    2730       2    2703    2712    2733       2    2700    2703    2712       2
    2700    2706    2718       2    2700    2706    2721       2    2700    2709
    2724       2    2895    2904    2898       2    2889    2898    2904       2
    2886    2868    2889       2    2886    2895    2904       2    2868    2886
    2895       2    2868    2889    2898       2    2865    2886    2868       2
    2865    2886    2895       2    2856    2874    2862       2    2853    2868
    2886       2    2853    2868    2889       2    2850    2832    2853       2
    2850    2865    2886       2    2841    2862    2874       2    2838    2820
    2841       2    2838    2856    2874       2    2832    2850    2865       2
    2832    2853    2868       2    2829    2850    2832       2    2829    2850
    2865       2    2826    2814    2829       2    2826    2841    2862       2
    2820    2838    2856       2    2820    2841    2826       2    2820    2841
    2862       2    2817    2832    2850       2    2817    2832    2853       2
    2814    2808    2817       2    2814    2826    2841       2    2814    2829
    2850       2    2811    2808    2814       2    2811    2808    2817       2
    2811    2820    2838       2    2811    2820    2841       2    2808    2811
    2820       2    2808    2814    2826       2    2808    2814    2829       2
    2808    2817    2832       2    3003    3012    3006       2    2997    3006
    3012       2    2994    2976    2997       2    2994    3003    3012       2
    2976    2994    3003       2    2976    2997    3006       2    2973    2994
    2976       2    2973    2994    3003       2    2964    2982    2970       2
    2961    2976    2994       2    2961    2976    2997       2    2958    2940
    2961       2    2958    2973    2994       2    2949    2970    2982       2
    2946    2928    2949       2    2946    2964    2982       2    2940    2958
    2973       2    2940    2961    2976       2    2937    2958    2940       2
    2937    2958    2973       2    2934    2922    2937       2    2934    2949
    2970       2    2928    2946    2964       2    2928    2949    2934       2
    2928    2949    2970       2    2925    2940    2958       2    2925    2940
    2961       2    2922    2916    2925       2    2922    2934    2949       2
    2922    2937    2958       2    2919    2916    2922       2    2919    2916
    2925       2    2919    2928    2946       2    2919    2928    2949       2
    2916    2919    2928       2    2916    2922    2934       2    2916    2922
    2937       2    2916    2925    2940       2    3111    3120    3114       2
    3105    3114    3120       2    3102    3084    3105       2    3102    3111
    3120       2    3084    3102    3111       2    3084    3105    3114       2
    3081    3102    3084       2    3081    3102    3111       2    3072    3090
    3078       2    3069    3084    3102       2    3069    3084    3105       2
    3066    3048    3069       2    3066    3081    3102       2    3057    3078
    3090       2    3054    3036    3057       2    3054    3072    3090       2
    3048    3066    3081       2    3048    3069    3084       2    3045    3066
    3048       2    3045    3066    3081       2    3042    3030    3045       2
    3042    3057    3078       2    3036    3054    3072       2    3036    3057
    3042       2    3036    3057    3078       2    3033    3048    3066       2
    3033    3048    3069       2    3030    3024    3033       2    3030    3042
    3057       2    3030    3045    3066       2    3027    3024    3030       2
    3027    3024    3033       2    3027    3036    3054       2    3027    3036
    3057       2    3024    3027    3036       2    3024    3030    3042       2
    3024    3030    3045       2    3024    3033    3048       2    3219    3228
    3222       2    3213    3222    3228       2    3210    3192    3213       2
    3210    3219    3228       2    3192    3210    3219       2    3192    3213
    3222       2    3189    3210    3192       2    3189    3210    3219       2
    3180    3198    3186       2    3177    3192    3210       2    3177    3192
    3213       2    3174    3156    3177       2    3174    3189    3210       2
    3165    3186    3198       2    3162    3144    3165       2    3162    3180
    3198       2    3156    3174    3189       2    3156    3177    3192       2
    3153    3174    3156       2    3153    3174    3189       2    3150    3138
    3153       2    3150    3165    3186       2    3144    3162    3180       2
    3144    3165    3150       2    3144    3165    3186       2    3141    3156
    3174       2    3141    3156    3177       2    3138    3132    3141       2
    3138    3150    3165       2    3138    3153    3174       2    3135    3132
    3138       2    3135    3132    3141       2    3135    3144    3162       2
    3135    3144    3165       2    3132    3135    3144       2    3132    3138
    3150       2    3132    3138    3153       2    3132    3141    3156       2
    3327    3336    3330       2    3321    3330    3336       2    3318    3300
    3321       2    3318    3327    3336       2    3300    3318    3327       2
    3300    3321    3330       2    3297    3318    3300       2    3297    3318
    3327       2    3288    3306    3294       2    3285    3300    3318       2
    3285    3300    3321       2    3282    3264    3285       2    3282    3297
    3318       2    3273    3294    3306       2    3270    3252    3273       2
    3270    3288    3306       2    3264    3282    3297       2    3264    3285
    3300       2    3261    3282    3264       2    3261    3282    3297       2
    3258    3246    3261       2    3258    3273    3294       2    3252    3270
    3288       2    3252    3273    3258       2    3252    3273    3294       2
    3249    3264    3282       2    3249    3264    3285       2    3246    3240
    3249       2    3246    3258    3273       2    3246    3261    3282       2
    3243    3240    3246       2    3243    3240    3249       2    3243    3252
    3270       2    3243    3252    3273       2    3240    3243    3252       2
    3240    3246    3258       2    3240    3246    3261       2    3240    3249
    3264       2    3435    3444    3438       2    3429    3438    3444       2
    3426    3408    3429       2    3426    3435    3444       2    3408    3426
    3435       2    3408    3429    3438       2    3405    3426    3408       2
    3405    3426    3435       2    3396    3414    3402       2    3393    3408
    3426       2    3393    3408    3429       2    3390    3372    3393       2
    3390    3405    3426       2    3381    3402    3414       2    3378    3360
    3381       2    3378    3396    3414       2    3372    3390    3405       2
    3372    3393    3408       2    3369    3390    3372       2    3369    3390
    3405       2    3366    3354    3369       2    3366    3381    3402       2
    3360    3378    3396       2    3360    3381    3366       2    3360    3381
    3402       2    3357    3372    3390       2    3357    3372    3393       2
    3354    3348    3357       2    3354    3366    3381       2    3354    3369
    3390       2    3351    3348    3354       2    3351    3348    3357       2
    3351    3360    3378       2    3351    3360    3381       2    3348    3351
    3360       2    3348    3354    3366       2    3348    3354    3369       2
    3348    3357    3372       2    3543    3552    3546       2    3537    3546
    3552       2    3534    3516    3537       2    3534    3543    3552       2
    3516    3534    3543       2    3516    3537    3546       2    3513    3534
    3516       2    3513    3534    3543       2    3504    3522    3510       2
    3501    3516    3534       2    3501    3516    3537       2    3498    3480
    3501       2    3498    3513    3534       2    3489    3510    3522       2
    3486    3468    3489       2    3486    3504    3522       2    3480    3498
    3513       2    3480    3501    3516       2    3477    3498    3480       2
    3477    3498    3513       2    3474    3462    3477       2    3474    3489
    3510       2    3468    3486    3504       2    3468    3489    3474       2
    3468    3489    3510       2    3465    3480    3498       2    3465    3480
    3501       2    3462    3456    3465       2    3462    3474    3489       2
    3462    3477    3498       2    3459    3456    3462       2    3459    3456
    3465       2    3459    3468    3486       2    3459    3468    3489       2
    3456    3459    3468       2    3456    3462    3474       2    3456    3462
    3477       2    3456    3465    3480       2    3651    3660    3654       2
    3645    3654    3660       2    3642    3624    3645       2    3642    3651
    3660       2    3624    3642    3651       2    3624    3645    3654       2
    3621    3642    3624       2    3621    3642    3651       2    3612    3630
    3618       2    3609    3624    3642       2    3609    3624    3645       2
    3606    3588    3609       2    3606    3621    3642       2    3597    3618
    3630       2    3594    3576    3597       2    3594    3612    3630       2
    3588    3606    3621       2    3588    3609    3624       2    3585    3606
    3588       2    3585    3606    3621       2    3582    3570    3585       2
    3582    3597    3618       2    3576    3594    3612       2    3576    3597
    3582       2    3576    3597    3618       2    3573    3588    3606       2
    3573    3588    3609       2    3570    3564    3573       2    3570    3582
    3597       2    3570    3585    3606       2    3567    3564    3570       2
    3567    3564    3573       2    3567    3576    3594       2    3567    3576
    3597       2    3564    3567    3576       2    3564    3570    3582       2
    3564    3570    3585       2    3564    3573    3588       2    3759    3768
    3762       2    3753    3762    3768       2    3750    3732    3753       2
    3750    3759    3768       2    3732    3750    3759       2    3732    3753
    3762       2    3729    3750    3732       2    3729    3750    3759       2
    3720    3738    3726       2    3717    3732    3750       2    3717    3732
    3753       2    3714    3696    3717       2    3714    3729    3750       2
    3705    3726    3738       2    3702    3684    3705       2    3702    3720
    3738       2    3696    3714    3729       2    3696    3717    3732       2
    3693    3714    3696       2    3693    3714    3729       2    3690    3678
    3693       2    3690    3705    3726       2    3684    3702    3720       2
    3684    3705    3690       2    3684    3705    3726       2    3681    3696
    3714       2    3681    3696    3717       2    3678    3672    3681       2
    3678    3690    3705       2    3678    3693    3714       2    3675    3672
    3678       2    3675    3672    3681       2    3675    3684    3702       2
    3675    3684    3705       2    3672    3675    3684       2    3672    3678
    3690       2    3672    3678    3693       2    3672    3681    3696       2
    3867    3876    3870       2    3861    3870    3876       2    3858    3840
    3861       2    3858    3867    3876       2    3840    3858    3867       2
    3840    3861    3870       2    3837    3858    3840       2    3837    3858
    3867       2    3828    3846    3834       2    3825    3840    3858       2
    3825    3840    3861       2    3822    3804    3825       2    3822    3837
    3858       2    3813    3834    3846       2    3810    3792    3813       2
    3810    3828    3846       2    3804    3822    3837       2    3804    3825
    3840       2    3801    3822    3804       2    3801    3822    3837       2
    3798    3786    3801       2    3798    3813    3834       2    3792    3810
    3828       2    3792    3813    3798       2    3792    3813    3834       2
    3789    3804    3822       2    3789    3804    3825       2    3786    3780
    3789       2    3786    3798    3813       2    3786    3801    3822       2
    3783    3780    3786       2    3783    3780    3789       2    3783    3792
    3810       2    3783    3792    3813       2    3780    3783    3792       2
    3780    3786    3798       2    3780    3786    3801       2    3780    3789
    3804       2    3975    3984    3978       2    3969    3978    3984       2
    3966    3948    3969       2    3966    3975    3984       2    3948    3966
    3975       2    3948    3969    3978       2    3945    3966    3948       2
    3945    3966    3975       2    3936    3954    3942       2    3933    3948
    3966       2    3933    3948    3969       2    3930    3912    3933       2
    3930    3945    3966       2    3921    3942    3954       2    3918    3900
    3921       2    3918    3936    3954       2    3912    3930    3945       2
    3912    3933    3948       2    3909    3930    3912       2    3909    3930
    3945       2    3906    3894    3909       2    3906    3921    3942       2
    3900    3918    3936       2    3900    3921    3906       2    3900    3921
    3942       2    3897    3912    3930       2    3897    3912    3933       2
    3894    3888    3897       2    3894    3906    3921       2    3894    3909
    3930       2    3891    3888    3894       2    3891    3888    3897       2
    3891    3900    3918       2    3891    3900    3921       2    3888    3891
    3900       2    3888    3894    3906       2    3888    3894    3909       2
    3888    3897    3912       2    4083    4092    4086       2    4077    4086
    4092       2    4074    4056    4077       2    4074    4083    4092       2
    4056    4074    4083       2    4056    4077    4086       2    4053    4074
    4056       2    4053    4074    4083       2    4044    4062    4050       2
    4041    4056    4074       2    4041    4056    4077       2    4038    4020
    4041       2    4038    4053    4074       2    4029    4050    4062       2
    4026    4008    4029       2    4026    4044    4062       2    4020    4038
    4053       2    4020    4041    4056       2    4017    4038    4020       2
    4017    4038    4053       2    4014    4002    4017       2    4014    4029
    4050       2    4008    4026    4044       2    4008    4029    4014       2
    4008    4029    4050       2    4005    4020    4038       2    4005    4020
    4041       2    4002    3996    4005       2    4002    4014    4029       2
    4002    4017    4038       2    3999    3996    4002       2    3999    3996
    4005       2    3999    4008    4026       2    3999    4008    4029       2
    3996    3999    4008       2    3996    4002    4014       2    3996    4002
    4017       2    3996    4005    4020       2    4191    4200    4194       2
    4185    4194    4200       2    4182    4164    4185       2    4182    4191
    4200       2    4164    4182    4191       2    4164    4185    4194       2
    4161    4182    4164       2    4161    4182    4191       2    4152    4170
    4158       2    4149    4164    4182       2    4149    4164    4185       2
    4146    4128    4149       2    4146    4161    4182       2    4137    4158
    4170       2    4134    4116    4137       2    4134    4152    4170       2
    4128    4146    4161       2    4128    4149    4164       2    4125    4146
    4128       2    4125    4146    4161       2    4122    4110    4125       2
    4122    4137    4158       2    4116    4134    4152       2    4116    4137
    4122       2    4116    4137    4158       2    4113    4128    4146       2
    4113    4128    4149       2    4110    4104    4113       2    4110    4122
    4137       2    4110    4125    4146       2    4107    4104    4110       2
    4107    4104    4113       2    4107    4116    4134       2    4107    4116
    4137       2    4104    4107    4116       2    4104    4110    4122       2
    4104    4110    4125       2    4104    4113    4128       2    4299    4308
    4302       2    4293    4302    4308       2    4290    4272    4293       2
    4290    4299    4308       2    4272    4290    4299       2    4272    4293
    4302       2    4269    4290    4272       2    4269    4290    4299       2
    4260    4278    4266       2    4257    4272    4290       2    4257    4272
    4293       2    4254    4236    4257       2    4254    4269    4290       2
    4245    4266    4278       2    4242    4224    4245       2    4242    4260
    4278       2    4236    4254    4269       2    4236    4257    4272       2
    4233    4254    4236       2    4233    4254    4269       2    4230    4218
    4233       2    4230    4245    4266       2    4224    4242    4260       2
    4224    4245    4230       2    4224    4245    4266       2    4221    4236
    4254       2    4221    4236    4257       2    4218    4212    4221       2
    4218    4230    4245       2    4218    4233    4254       2    4215    4212
    4218       2    4215    4212    4221       2    4215    4224    4242       2
    4215    4224    4245       2    4212    4215    4224       2    4212    4218
    4230       2    4212    4218    4233       2    4212    4221    4236       2
    4407    4416    4410       2    4401    4410    4416       2    4398    4380
    4401       2    4398    4407    4416       2    4380    4398    4407       2
    4380    4401    4410       2    4377    4398    4380       2    4377    4398
    4407       2    4368    4386    4374       2    4365    4380    4398       2
    4365    4380    4401       2    4362    4344    4365       2    4362    4377
    4398       2    4353    4374    4386       2    4350    4332    4353       2
    4350    4368    4386       2    4344    4362    4377       2    4344    4365
    4380       2    4341    4362    4344       2    4341    4362    4377       2
    4338    4326    4341       2    4338    4353    4374       2    4332    4350
    4368       2    4332    4353    4338       2    4332    4353    4374       2
    4329    4344    4362       2    4329    4344    4365       2    4326    4320
    4329       2    4326    4338    4353       2    4326    4341    4362       2
    4323    4320    4326       2    4323    4320    4329       2    4323    4332
    4350       2    4323    4332    4353       2    4320    4323    4332       2
    4320    4326    4338       2    4320    4326    4341       2    4320    4329
    4344       2    4515    4524    4518       2    4509    4518    4524       2
    4506    4488    4509       2    4506    4515    4524       2    4488    4506
    4515       2    4488    4509    4518       2    4485    4506    4488       2
    4485    4506    4515       2    4476    4494    4482       2    4473    4488
    4506       2    4473    4488    4509       2    4470    4452    4473       2
    4470    4485    4506       2    4461    4482    4494       2    4458    4440
    4461       2    4458    4476    4494       2    4452    4470    4485       2
    4452    4473    4488       2    4449    4470    4452       2    4449    4470
    4485       2    4446    4434    4449       2    4446    4461    4482       2
    4440    4458    4476       2    4440    4461    4446       2    4440    4461
    4482       2    4437    4452    4470       2    4437    4452    4473       2
    4434    4428    4437       2    4434    4446    4461       2    4434    4449
    4470       2    4431    4428    4434       2    4431    4428    4437       2
    4431    4440    4458       2    4431    4440    4461       2    4428    4431
    4440       2    4428    4434    4446       2    4428    4434    4449       2
    4428    4437    4452       2    4623    4632    4626       2    4617    4626
    4632       2    4614    4596    4617       2    4614    4623    4632       2
    4596    4614    4623       2    4596    4617    4626       2    4593    4614
    4596       2    4593    4614    4623       2    4584    4602    4590       2
    4581    4596    4614       2    4581    4596    4617       2    4578    4560
    4581       2    4578    4593    4614       2    4569    4590    4602       2
    4566    4548    4569       2    4566    4584    4602       2    4560    4578
    4593       2    4560    4581    4596       2    4557    4578    4560       2
    4557    4578    4593       2    4554    4542    4557       2    4554    4569
    4590       2    4548    4566    4584       2    4548    4569    4554       2
    4548    4569    4590       2    4545    4560    4578       2    4545    4560
    4581       2    4542    4536    4545       2    4542    4554    4569       2
    4542    4557    4578       2    4539    4536    4542       2    4539    4536
    4545       2    4539    4548    4566       2    4539    4548    4569       2
    4536    4539    4548       2    4536    4542    4554       2    4536    4542
    4557       2    4536    4545    4560       2    4731    4740    4734       2
    4725    4734    4740       2    4722    4704    4725       2    4722    4731
    4740       2    4704    4722    4731       2    4704    4725    4734       2
    4701    4722    4704       2    4701    4722    4731       2    4692    4710
    4698       2    4689    4704    4722       2    4689    4704    4725       2
    4686    4668    4689       2    4686    4701    4722       2    4677    4698
    4710       2    4674    4656    4677       2    4674    4692    4710       2
    4668    4686    4701       2    4668    4689    4704       2    4665    4686
    4668       2    4665    4686    4701       2    4662    4650    4665       2
    4662    4677    4698       2    4656    4674    4692       2    4656    4677
    4662       2    4656    4677    4698       2    4653    4668    4686       2
    4653    4668    4689       2    4650    4644    4653       2    4650    4662
    4677       2    4650    4665    4686       2    4647    4644    4650       2
    4647    4644    4653       2    4647    4656    4674       2    4647    4656
    4677       2    4644    4647    4656       2    4644    4650    4662       2
    4644    4650    4665       2    4644    4653    4668       2    4839    4848
    4842       2    4833    4842    4848       2    4830    4812    4833       2
    4830    4839    4848       2    4812    4830    4839       2    4812    4833
    4842       2    4809    4830    4812       2    4809    4830    4839       2
    4800    4818    4806       2    4797    4812    4830       2    4797    4812
    4833       2    4794    4776    4797       2    4794    4809    4830       2
    4785    4806    4818       2    4782    4764    4785       2    4782    4800
    4818       2    4776    4794    4809       2    4776    4797    4812       2
    4773    4794    4776       2    4773    4794    4809       2    4770    4758
    4773       2    4770    4785    4806       2    4764    4782    4800       2
    4764    4785    4770       2    4764    4785    4806       2    4761    4776
    4794       2    4761    4776    4797       2    4758    4752    4761       2
    4758    4770    4785       2    4758    4773    4794       2    4755    4752
    4758       2    4755    4752    4761       2    4755    4764    4782       2
    4755    4764    4785       2    4752    4755    4764       2    4752    4758
    4770       2    4752    4758    4773       2    4752    4761    4776       2
    4947    4956    4950       2    4941    4950    4956       2    4938    4920
    4941       2    4938    4947    4956       2    4920    4938    4947       2
    4920    4941    4950       2    4917    4938    4920       2    4917    4938
    4947       2    4908    4926    4914       2    4905    4920    4938       2
    4905    4920    4941       2    4902    4884    4905       2    4902    4917
    4938       2    4893    4914    4926       2    4890    4872    4893       2
    4890    4908    4926       2    4884    4902    4917       2    4884    4905
    4920       2    4881    4902    4884       2    4881    4902    4917       2
    4878    4866    4881       2    4878    4893    4914       2    4872    4890
    4908       2    4872    4893    4878       2    4872    4893    4914       2
    4869    4884    4902       2    4869    4884    4905       2    4866    4860
    4869       2    4866    4878    4893       2    4866    4881    4902       2
    4863    4860    4866       2    4863    4860    4869       2    4863    4872
    4890       2    4863    4872    4893       2    4860    4863    4872       2
    4860    4866    4878       2    4860    4866    4881       2    4860    4869
    4884       2    5055    5064    5058       2    5049    5058    5064       2
    5046    5028    5049       2    5046    5055    5064       2    5028    5046
    5055       2    5028    5049    5058       2    5025    5046    5028       2
    5025    5046    5055       2    5016    5034    5022       2    5013    5028
    5046       2    5013    5028    5049       2    5010    4992    5013       2
    5010    5025    5046       2    5001    5022    5034       2    4998    4980
    5001       2    4998    5016    5034       2    4992    5010    5025       2
    4992    5013    5028       2    4989    5010    4992       2    4989    5010
    5025       2    4986    4974    4989       2    4986    5001    5022       2
    4980    4998    5016       2    4980    5001    4986       2    4980    5001
    5022       2    4977    4992    5010       2    4977    4992    5013       2
    4974    4968    4977       2    4974    4986    5001       2    4974    4989
    5010       2    4971    4968    4974       2    4971    4968    4977       2
    4971    4980    4998       2    4971    4980    5001       2    4968    4971
    4980       2    4968    4974    4986       2    4968    4974    4989       2
    4968    4977    4992       2    5163    5172    5166       2    5157    5166
    5172       2    5154    5136    5157       2    5154    5163    5172       2
    5136    5154    5163       2    5136    5157    5166       2    5133    5154
    5136       2    5133    5154    5163       2    5124    5142    5130       2
    5121    5136    5154       2    5121    5136    5157       2    5118    5100
    5121       2    5118    5133    5154       2    5109    5130    5142       2
    5106    5088    5109       2    5106    5124    5142       2    5100    5118
    5133       2    5100    5121    5136       2    5097    5118    5100       2
    5097    5118    5133       2    5094    5082    5097       2    5094    5109
    5130       2    5088    5106    5124       2    5088    5109    5094       2
    5088    5109    5130       2    5085    5100    5118       2    5085    5100
    5121       2    5082    5076    5085       2    5082    5094    5109       2
    5082    5097    5118       2    5079    5076    5082       2    5079    5076
    5085       2    5079    5088    5106       2    5079    5088    5109       2
    5076    5079    5088       2    5076    5082    5094       2    5076    5082
    5097       2    5076    5085    5100       2    5271    5280    5274       2
    5265    5274    5280       2    5262    5244    5265       2    5262    5271
    5280       2    5244    5262    5271       2    5244    5265    5274       2
    5241    5262    5244       2    5241    5262    5271       2    5232    5250
    5238       2    5229    5244    5262       2    5229    5244    5265       2
    5226    5208    5229       2    5226    5241    5262       2    5217    5238
    5250       2    5214    5196    5217       2    5214    5232    5250       2
    5208    5226    5241       2    5208    5229    5244       2    5205    5226
    5208       2    5205    5226    5241       2    5202    5190    5205       2
    5202    5217    5238       2    5196    5214    5232       2    5196    5217
    5202       2    5196    5217    5238       2    5193    5208    5226       2
    5193    5208    5229       2    5190    5184    5193       2    5190    5202
    5217       2    5190    5205    5226       2    5187    5184    5190       2
    5187    5184    5193       2    5187    5196    5214       2    5187    5196
    5217       2    5184    5187    5196       2    5184    5190    5202       2
    5184    5190    5205       2    5184    5193    5208       2    5379    5388
    5382       2    5373    5382    5388       2    5370    5352    5373       2
    5370    5379    5388       2    5352    5370    5379       2    5352    5373
    5382       2    5349    5370    5352       2    5349    5370    5379       2
    5340    5358    5346       2    5337    5352    5370       2    5337    5352
    5373       2    5334    5316    5337       2    5334    5349    5370       2
    5325    5346    5358       2    5322    5304    5325       2    5322    5340
    5358       2    5316    5334    5349       2    5316    5337    5352       2
    5313    5334    5316       2    5313    5334    5349       2    5310    5298
    5313       2    5310    5325    5346       2    5304    5322    5340       2
    5304    5325    5310       2    5304    5325    5346       2    5301    5316
    5334       2    5301    5316    5337       2    5298    5292    5301       2
    5298    5310    5325       2    5298    5313    5334       2    5295    5292
    5298       2    5295    5292    5301       2    5295    5304    5322       2
    5295    5304    5325       2    5292    5295    5304       2    5292    5298
    5310       2    5292    5298    5313       2    5292    5301    5316       2
    5487    5496    5490       2    5481    5490    5496       2    5478    5460
    5481       2    5478    5487    5496       2    5460    5478    5487       2
    5460    5481    5490       2    5457    5478    5460       2    5457    5478
    5487       2    5448    5466    5454       2    5445    5460    5478       2
    5445    5460    5481       2    5442    5424    5445       2    5442    5457
    5478       2    5433    5454    5466       2    5430    5412    5433       2
    5430    5448    5466       2    5424    5442    5457       2    5424    5445
    5460       2    5421    5442    5424       2    5421    5442    5457       2
    5418    5406    5421       2    5418    5433    5454       2    5412    5430
    5448       2    5412    5433    5418       2    5412    5433    5454       2
    5409    5424    5442       2    5409    5424    5445       2    5406    5400
    5409       2    5406    5418    5433       2    5406    5421    5442       2
    5403    5400    5406       2    5403    5400    5409       2    5403    5412
    5430       2    5403    5412    5433       2    5400    5403    5412       2
    5400    5406    5418       2    5400    5406    5421       2    5400    5409
    5424       2    5595    5604    5598       2    5589    5598    5604       2
    5586    5568    5589       2    5586    5595    5604       2    5568    5586
    5595       2    5568    5589    5598       2    5565    5586    5568       2
    5565    5586    5595       2    5556    5574    5562       2    5553    5568
    5586       2    5553    5568    5589       2    5550    5532    5553       2
    5550    5565    5586       2    5541    5562    5574       2    5538    5520
    5541       2    5538    5556    5574       2    5532    5550    5565       2
    5532    5553    5568       2    5529    5550    5532       2    5529    5550
    5565       2    5526    5514    5529       2    5526    5541    5562       2
    5520    5538    5556       2    5520    5541    5526       2    5520    5541
    5562       2    5517    5532    5550       2    5517    5532    5553       2
    5514    5508    5517       2    5514    5526    5541       2    5514    5529
    5550       2    5511    5508    5514       2    5511    5508    5517       2
    5511    5520    5538       2    5511    5520    5541       2    5508    5511
    5520       2    5508    5514    5526       2    5508    5514    5529       2
    5508    5517    5532       2    5703    5712    5706       2    5697    5706
    5712       2    5694    5676    5697       2    5694    5703    5712       2
    5676    5694    5703       2    5676    5697    5706       2    5673    5694
    5676       2    5673    5694    5703       2    5664    5682    5670       2
    5661    5676    5694       2    5661    5676    5697       2    5658    5640
    5661       2    5658    5673    5694       2    5649    5670    5682       2
    5646    5628    5649       2    5646    5664    5682       2    5640    5658
    5673       2    5640    5661    5676       2    5637    5658    5640       2
    5637    5658    5673       2    5634    5622    5637       2    5634    5649
    5670       2    5628    5646    5664       2    5628    5649    5634       2
    5628    5649    5670       2    5625    5640    5658       2    5625    5640
    5661       2    5622    5616    5625       2    5622    5634    5649       2
    5622    5637    5658       2    5619    5616    5622       2    5619    5616
    5625       2    5619    5628    5646       2    5619    5628    5649       2
    5616    5619    5628       2    5616    5622    5634       2    5616    5622
    5637       2    5616    5625    5640       2    5811    5820    5814       2
    5805    5814    5820       2    5802    5784    5805       2    5802    5811
    5820       2    5784    5802    5811       2    5784    5805    5814       2
    5781    5802    5784       2    5781    5802    5811       2    5772    5790
    5778       2    5769    5784    5802       2    5769    5784    5805       2
    5766    5748    5769       2    5766    5781    5802       2    5757    5778
    5790       2    5754    5736    5757       2    5754    5772    5790       2
    5748    5766    5781       2    5748    5769    5784       2    5745    5766
    5748       2    5745    5766    5781       2    5742    5730    5745       2
    5742    5757    5778       2    5736    5754    5772       2    5736    5757
    5742       2    5736    5757    5778       2    5733    5748    5766       2
    5733    5748    5769       2    5730    5724    5733       2    5730    5742
    5757       2    5730    5745    5766       2    5727    5724    5730       2
    5727    5724    5733       2    5727    5736    5754       2    5727    5736
    5757       2    5724    5727    5736       2    5724    5730    5742       2
    5724    5730    5745       2    5724    5733    5748       2
%FLAG DIHEDRALS_INC_HYDROGEN                                                    
%FORMAT(10I8)                                                                   
     102      90      96     105       1      99      87      96     105       1
      93      81      90      96       1      93      81      90     102       1
      90      96      87      99       1      87      96      90     102       1
      81      90      96     105       1      78      60      81      93       1
      78      87      96     105       1      75      57      78      87       1
      72      54      66      84       1      69      48      66      84       1
      63      45      60      78       1      63      45      60      81       1
      60      78      57      75       1      60      78      87      99       1
      60      81      90     102       1      57      78      87      99       1
      54      66      48      69       1      51      30      48      66       1
      51      30      48      69       1      48      66      54      72       1
      45      60      81      93       1      42      24      45      63       1
      39      21      42      57       1      36      18      33      54       1
      33      12      30      51       1      33      54      66      84       1
      30      48      66      84       1      27       9      24      42       1
      27       9      24      45       1      24      42      21      39       1
      24      42      57      75       1      21       6      18      36       1
      21      42      57      75       1      18       6      21      39       1
      18      33      54      72       1      15       3      12      30       1
      15       3      12      33       1      12      30      48      69       1
      12      33      18      36       1      12      33      54      72       1
       9       0       3      15       1       9      24      45      63       1
       6       0       3      15       1       6       0       9      27       1
       3       0       9      27       1       3      12      30      51       1
       0       6      18      36       1       0       6      21      39       1
     210     198     204     213       1     207     195     204     213       1
     201     189     198     204       1     201     189     198     210       1
     198     204     195     207       1     195     204     198     210       1
     189     198     204     213       1     186     168     189     201       1
     186     195     204     213       1     183     165     186     195       1
     180     162     174     192       1     177     156     174     192       1
     171     153     168     186       1     171     153     168     189       1
     168     186     165     183       1     168     186     195     207       1
     168     189     198     210       1     165     186     195     207       1
     162     174     156     177       1     159     138     156     174       1
     159     138     156     177       1     156     174     162     180       1
     153     168     189     201       1     150     132     153     171       1
     147     129     150     165       1     144     126     141     162       1
     141     120     138     159       1     141     162     174     192       1
     138     156     174     192       1     135     117     132     150       1
     135     117     132     153       1     132     150     129     147       1
     132     150     165     183       1     129     114     126     144       1
     129     150     165     183       1     126     114     129     147       1
     126     141     162     180       1     123     111     120     138       1
     123     111     120     141       1     120     138     156     177       1
     120     141     126     144       1     120     141     162     180       1
     117     108     111     123       1     117     132     153     171       1
     114     108     111     123       1     114     108     117     135       1
     111     108     117     135       1     111     120     138     159       1
     108     114     126     144       1     108     114     129     147       1
     318     306     312     321       1     315     303     312     321       1
     309     297     306     312       1     309     297     306     318       1
     306     312     303     315       1     303     312     306     318       1
     297     306     312     321       1     294     276     297     309       1
     294     303     312     321       1     291     273     294     303       1
     288     270     282     300       1     285     264     282     300       1
     279     261     276     294       1     279     261     276     297       1
     276     294     273     291       1     276     294     303     315       1
     276     297     306     318       1     273     294     303     315       1
     270     282     264     285       1     267     246     264     282       1
     267     246     264     285       1     264     282     270     288       1
     261     276     297     309       1     258     240     261     279       1
     255     237     258     273       1     252     234     249     270       1
     249     228     246     267       1     249     270     282     300       1
     246     264     282     300       1     243     225     240     258       1
     243     225     240     261       1     240     258     237     255       1
     240     258     273     291       1     237     222     234     252       1
     237     258     273     291       1     234     222     237     255       1
     234     249     270     288       1     231     219     228     246       1
     231     219     228     249       1     228     246     264     285       1
     228     249     234     252       1     228     249     270     288       1
     225     216     219     231       1     225     240     261     279       1
     222     216     219     231       1     222     216     225     243       1
     219     216     225     243       1     219     228     246     267       1
     216     222     234     252       1     216     222     237     255       1
     426     414     420     429       1     423     411     420     429       1
     417     405     414     420       1     417     405     414     426       1
     414     420     411     423       1     411     420     414     426       1
     405     414     420     429       1     402     384     405     417       1
     402     411     420     429       1     399     381     402     411       1
     396     378     390     408       1     393     372     390     408       1
     387     369     384     402       1     387     369     384     405       1
     384     402     381     399       1     384     402     411     423       1
     384     405     414     426       1     381     402     411     423       1
     378     390     372     393       1     375     354     372     390       1
     375     354     372     393       1     372     390     378     396       1
     369     384     405     417       1     366     348     369     387       1
     363     345     366     381       1     360     342     357     378       1
     357     336     354     375       1     357     378     390     408       1
     354     372     390     408       1     351     333     348     366       1
     351     333     348     369       1     348     366     345     363       1
     348     366     381     399       1     345     330     342     360       1
     345     366     381     399       1     342     330     345     363       1
     342     357     378     396       1     339     327     336     354       1
     339     327     336     357       1     336     354     372     393       1
     336     357     342     360       1     336     357     378     396       1
     333     324     327     339       1     333     348     369     387       1
     330     324     327     339       1     330     324     333     351       1
     327     324     333     351       1     327     336     354     375       1
     324     330     342     360       1     324     330     345     363       1
     534     522     528     537       1     531     519     528     537       1
     525     513     522     528       1     525     513     522     534       1
     522     528     519     531       1     519     528     522     534       1
     513     522     528     537       1     510     492     513     525       1
     510     519     528     537       1     507     489     510     519       1
     504     486     498     516       1     501     480     498     516       1
     495     477     492     510       1     495     477     492     513       1
     492     510     489     507       1     492     510     519     531       1
     492     513     522     534       1     489     510     519     531       1
     486     498     480     501       1     483     462     480     498       1
     483     462     480     501       1     480     498     486     504       1
     477     492     513     525       1     474     456     477     495       1
     471     453     474     489       1     468     450     465     486       1
     465     444     462     483       1     465     486     498     516       1
     462     480     498     516       1     459     441     456     474       1
     459     441     456     477       1     456     474     453     471       1
     456     474     489     507       1     453     438     450     468       1
     453     474     489     507       1     450     438     453     471       1
     450     465     486     504       1     447     435     444     462       1
     447     435     444     465       1     444     462     480     501       1
     444     465     450     468       1     444     465     486     504       1
     441     432     435     447       1     441     456     477     495       1
     438     432     435     447       1     438     432     441     459       1
     435     432     441     459       1     435     444     462     483       1
     432     438     450     468       1     432     438     453     471       1
     642     630     636     645       1     639     627     636     645       1
     633     621     630     636       1     633     621     630     642       1
     630     636     627     639       1     627     636     630     642       1
     621     630     636     645       1     618     600     621     633       1
     618     627     636     645       1     615     597     618     627       1
     612     594     606     624       1     609     588     606     624       1
     603     585     600     618       1     603     585     600     621       1
     600     618     597     615       1     600     618     627     639       1
     600     621     630     642       1     597     618     627     639       1
     594     606     588     609       1     591     570     588     606       1
     591     570     588     609       1     588     606     594     612       1
     585     600     621     633       1     582     564     585     603       1
     579     561     582     597       1     576     558     573     594       1
     573     552     570     591       1     573     594     606     624       1
     570     588     606     624       1     567     549     564     582       1
     567     549     564     585       1     564     582     561     579       1
     564     582     597     615       1     561     546     558     576       1
     561     582     597     615       1     558     546     561     579       1
     558     573     594     612       1     555     543     552     570       1
     555     543     552     573       1     552     570     588     609       1
     552     573     558     576       1     552     573     594     612       1
     549     540     543     555       1     549     564     585     603       1
     546     540     543     555       1     546     540     549     567       1
     543     540     549     567       1     543     552     570     591       1
     540     546     558     576       1     540     546     561     579       1
     750     738     744     753       1     747     735     744     753       1
     741     729     738     744       1     741     729     738     750       1
     738     744     735     747       1     735     744     738     750       1
     729     738     744     753       1     726     708     729     741       1
     726     735     744     753       1     723     705     726     735       1
     720     702     714     732       1     717     696     714     732       1
     711     693     708     726       1     711     693     708     729       1
     708     726     705     723       1     708     726     735     747       1
     708     729     738     750       1     705     726     735     747       1
     702     714     696     717       1     699     678     696     714       1
     699     678     696     717       1     696     714     702     720       1
     693     708     729     741       1     690     672     693     711       1
     687     669     690     705       1     684     666     681     702       1
     681     660     678     699       1     681     702     714     732       1
     678     696     714     732       1     675     657     672     690       1
     675     657     672     693       1     672     690     669     687       1
     672     690     705     723       1     669     654     666     684       1
     669     690     705     723       1     666     654     669     687       1
     666     681     702     720       1     663     651     660     678       1
     663     651     660     681       1     660     678     696     717       1
     660     681     666     684       1     660     681     702     720       1
     657     648     651     663       1     657     672     693     711       1
     654     648     651     663       1     654     648     657     675       1
     651     648     657     675       1     651     660     678     699       1
     648     654     666     684       1     648     654     669     687       1
     858     846     852     861       1     855     843     852     861       1
     849     837     846     852       1     849     837     846     858       1
     846     852     843     855       1     843     852     846     858       1
     837     846     852     861       1     834     816     837     849       1
     834     843     852     861       1     831     813     834     843       1
     828     810     822     840       1     825     804     822     840       1
     819     801     816     834       1     819     801     816     837       1
     816     834     813     831       1     816     834     843     855       1
     816     837     846     858       1     813     834     843     855       1
     810     822     804     825       1     807     786     804     822       1
     807     786     804     825       1     804     822     810     828       1
     801     816     837     849       1     798     780     801     819       1
     795     777     798     813       1     792     774     789     810       1
     789     768     786     807       1     789     810     822     840       1
     786     804     822     840       1     783     765     780     798       1
     783     765     780     801       1     780     798     777     795       1
     780     798     813     831       1     777     762     774     792       1
     777     798     813     831       1     774     762     777     795       1
     774     789     810     828       1     771     759     768     786       1
     771     759     768     789       1     768     786     804     825       1
     768     789     774     792       1     768     789     810     828       1
     765     756     759     771       1     765     780     801     819       1
     762     756     759     771       1     762     756     765     783       1
     759     756     765     783       1     759     768     786     807       1
     756     762     774     792       1     756     762     777     795       1
     966     954     960     969       1     963     951     960     969       1
     957     945     954     960       1     957     945     954     966       1
     954     960     951     963       1     951     960     954     966       1
     945     954     960     969       1     942     924     945     957       1
     942     951     960     969       1     939     921     942     951       1
     936     918     930     948       1     933     912     930     948       1
     927     909     924     942       1     927     909     924     945       1
     924     942     921     939       1     924     942     951     963       1
     924     945     954     966       1     921     942     951     963       1
     918     930     912     933       1     915     894     912     930       1
     915     894     912     933       1     912     930     918     936       1
     909     924     945     957       1     906     888     909     927       1
     903     885     906     921       1     900     882     897     918       1
     897     876     894     915       1     897     918     930     948       1
     894     912     930     948       1     891     873     888     906       1
     891     873     888     909       1     888     906     885     903       1
     888     906     921     939       1     885     870     882     900       1
     885     906     921     939       1     882     870     885     903       1
     882     897     918     936       1     879     867     876     894       1
     879     867     876     897       1     876     894     912     933       1
     876     897     882     900       1     876     897     918     936       1
     873     864     867     879       1     873     888     909     927       1
     870     864     867     879       1     870     864     873     891       1
     867     864     873     891       1     867     876     894     915       1
     864     870     882     900       1     864     870     885     903       1
    1074    1062    1068    1077       1    1071    1059    1068    1077       1
    1065    1053    1062    1068       1    1065    1053    1062    1074       1
    1062    1068    1059    1071       1    1059    1068    1062    1074       1
    1053    1062    1068    1077       1    1050    1032    1053    1065       1
    1050    1059    1068    1077       1    1047    1029    1050    1059       1
    1044    1026    1038    1056       1    1041    1020    1038    1056       1
    1035    1017    1032    1050       1    1035    1017    1032    1053       1
    1032    1050    1029    1047       1    1032    1050    1059    1071       1
    1032    1053    1062    1074       1    1029    1050    1059    1071       1
    1026    1038    1020    1041       1    1023    1002    1020    1038       1
    1023    1002    1020    1041       1    1020    1038    1026    1044       1
    1017    1032    1053    1065       1    1014     996    1017    1035       1
    1011     993    1014    1029       1    1008     990    1005    1026       1
    1005     984    1002    1023       1    1005    1026    1038    1056       1
    1002    1020    1038    1056       1     999     981     996    1014       1
     999     981     996    1017       1     996    1014     993    1011       1
     996    1014    1029    1047       1     993     978     990    1008       1
     993    1014    1029    1047       1     990     978     993    1011       1
     990    1005    1026    1044       1     987     975     984    1002       1
     987     975     984    1005       1     984    1002    1020    1041       1
     984    1005     990    1008       1     984    1005    1026    1044       1
     981     972     975     987       1     981     996    1017    1035       1
     978     972     975     987       1     978     972     981     999       1
     975     972     981     999       1     975     984    1002    1023       1
     972     978     990    1008       1     972     978     993    1011       1
    1182    1170    1176    1185       1    1179    1167    1176    1185       1
    1173    1161    1170    1176       1    1173    1161    1170    1182       1
    1170    1176    1167    1179       1    1167    1176    1170    1182       1
    1161    1170    1176    1185       1    1158    1140    1161    1173       1
    1158    1167    1176    1185       1    1155    1137    1158    1167       1
    1152    1134    1146    1164       1    1149    1128    1146    1164       1
    1143    1125    1140    1158       1    1143    1125    1140    1161       1
    1140    1158    1137    1155       1    1140    1158    1167    1179       1
    1140    1161    1170    1182       1    1137    1158    1167    1179       1
    1134    1146    1128    1149       1    1131    1110    1128    1146       1
    1131    1110    1128    1149       1    1128    1146    1134    1152       1
    1125    1140    1161    1173       1    1122    1104    1125    1143       1
    1119    1101    1122    1137       1    1116    1098    1113    1134       1
    1113    1092    1110    1131       1    1113    1134    1146    1164       1
    1110    1128    1146    1164       1    1107    1089    1104    1122       1
    1107    1089    1104    1125       1    1104    1122    1101    1119       1
    1104    1122    1137    1155       1    1101    1086    1098    1116       1
    1101    1122    1137    1155       1    1098    1086    1101    1119       1
    1098    1113    1134    1152       1    1095    1083    1092    1110       1
    1095    1083    1092    1113       1    1092    1110    1128    1149       1
    1092    1113    1098    1116       1    1092    1113    1134    1152       1
    1089    1080    1083    1095       1    1089    1104    1125    1143       1
    1086    1080    1083    1095       1    1086    1080    1089    1107       1
    1083    1080    1089    1107       1    1083    1092    1110    1131       1
    1080    1086    1098    1116       1    1080    1086    1101    1119       1
    1290    1278    1284    1293       1    1287    1275    1284    1293       1
    1281    1269    1278    1284       1    1281    1269    1278    1290       1
    1278    1284    1275    1287       1    1275    1284    1278    1290       1
    1269    1278    1284    1293       1    1266    1248    1269    1281       1
    1266    1275    1284    1293       1    1263    1245    1266    1275       1
    1260    1242    1254    1272       1    1257    1236    1254    1272       1
    1251    1233    1248    1266       1    1251    1233    1248    1269       1
    1248    1266    1245    1263       1    1248    1266    1275    1287       1
    1248    1269    1278    1290       1    1245    1266    1275    1287       1
    1242    1254    1236    1257       1    1239    1218    1236    1254       1
    1239    1218    1236    1257       1    1236    1254    1242    1260       1
    1233    1248    1269    1281       1    1230    1212    1233    1251       1
    1227    1209    1230    1245       1    1224    1206    1221    1242       1
    1221    1200    1218    1239       1    1221    1242    1254    1272       1
    1218    1236    1254    1272       1    1215    1197    1212    1230       1
    1215    1197    1212    1233       1    1212    1230    1209    1227       1
    1212    1230    1245    1263       1    1209    1194    1206    1224       1
    1209    1230    1245    1263       1    1206    1194    1209    1227       1
    1206    1221    1242    1260       1    1203    1191    1200    1218       1
    1203    1191    1200    1221       1    1200    1218    1236    1257       1
    1200    1221    1206    1224       1    1200    1221    1242    1260       1
    1197    1188    1191    1203       1    1197    1212    1233    1251       1
    1194    1188    1191    1203       1    1194    1188    1197    1215       1
    1191    1188    1197    1215       1    1191    1200    1218    1239       1
    1188    1194    1206    1224       1    1188    1194    1209    1227       1
    1398    1386    1392    1401       1    1395    1383    1392    1401       1
    1389    1377    1386    1392       1    1389    1377    1386    1398       1
    1386    1392    1383    1395       1    1383    1392    1386    1398       1
    1377    1386    1392    1401       1    1374    1356    1377    1389       1
    1374    1383    1392    1401       1    1371    1353    1374    1383       1
    1368    1350    1362    1380       1    1365    1344    1362    1380       1
    1359    1341    1356    1374       1    1359    1341    1356    1377       1
    1356    1374    1353    1371       1    1356    1374    1383    1395       1
    1356    1377    1386    1398       1    1353    1374    1383    1395       1
    1350    1362    1344    1365       1    1347    1326    1344    1362       1
    1347    1326    1344    1365       1    1344    1362    1350    1368       1
    1341    1356    1377    1389       1    1338    1320    1341    1359       1
    1335    1317    1338    1353       1    1332    1314    1329    1350       1
    1329    1308    1326    1347       1    1329    1350    1362    1380       1
    1326    1344    1362    1380       1    1323    1305    1320    1338       1
    1323    1305    1320    1341       1    1320    1338    1317    1335       1
    1320    1338    1353    1371       1    1317    1302    1314    1332       1
    1317    1338    1353    1371       1    1314    1302    1317    1335       1
    1314    1329    1350    1368       1    1311    1299    1308    1326       1
    1311    1299    1308    1329       1    1308    1326    1344    1365       1
    1308    1329    1314    1332       1    1308    1329    1350    1368       1
    1305    1296    1299    1311       1    1305    1320    1341    1359       1
    1302    1296    1299    1311       1    1302    1296    1305    1323       1
    1299    1296    1305    1323       1    1299    1308    1326    1347       1
    1296    1302    1314    1332       1    1296    1302    1317    1335       1
    1506    1494    1500    1509       1    1503    1491    1500    1509       1
    1497    1485    1494    1500       1    1497    1485    1494    1506       1
    1494    1500    1491    1503       1    1491    1500    1494    1506       1
    1485    1494    1500    1509       1    1482    1464    1485    1497       1
    1482    1491    1500    1509       1    1479    1461    1482    1491       1
    1476    1458    1470    1488       1    1473    1452    1470    1488       1
    1467    1449    1464    1482       1    1467    1449    1464    1485       1
    1464    1482    1461    1479       1    1464    1482    1491    1503       1
    1464    1485    1494    1506       1    1461    1482    1491    1503       1
    1458    1470    1452    1473       1    1455    1434    1452    1470       1
    1455    1434    1452    1473       1    1452    1470    1458    1476       1
    1449    1464    1485    1497       1    1446    1428    1449    1467       1
    1443    1425    1446    1461       1    1440    1422    1437    1458       1
    1437    1416    1434    1455       1    1437    1458    1470    1488       1
    1434    1452    1470    1488       1    1431    1413    1428    1446       1
    1431    1413    1428    1449       1    1428    1446    1425    1443       1
    1428    1446    1461    1479       1    1425    1410    1422    1440       1
    1425    1446    1461    1479       1    1422    1410    1425    1443       1
    1422    1437    1458    1476       1    1419    1407    1416    1434       1
    1419    1407    1416    1437       1    1416    1434    1452    1473       1
    1416    1437    1422    1440       1    1416    1437    1458    1476       1
    1413    1404    1407    1419       1    1413    1428    1449    1467       1
    1410    1404    1407    1419       1    1410    1404    1413    1431       1
    1407    1404    1413    1431       1    1407    1416    1434    1455       1
    1404    1410    1422    1440       1    1404    1410    1425    1443       1
    1614    1602    1608    1617       1    1611    1599    1608    1617       1
    1605    1593    1602    1608       1    1605    1593    1602    1614       1
    1602    1608    1599    1611       1    1599    1608    1602    1614       1
    1593    1602    1608    1617       1    1590    1572    1593    1605       1
    1590    1599    1608    1617       1    1587    1569    1590    1599       1
    1584    1566    1578    1596       1    1581    1560    1578    1596       1
    1575    1557    1572    1590       1    1575    1557    1572    1593       1
    1572    1590    1569    1587       1    1572    1590    1599    1611       1
    1572    1593    1602    1614       1    1569    1590    1599    1611       1
    1566    1578    1560    1581       1    1563    1542    1560    1578       1
    1563    1542    1560    1581       1    1560    1578    1566    1584       1
    1557    1572    1593    1605       1    1554    1536    1557    1575       1
    1551    1533    1554    1569       1    1548    1530    1545    1566       1
    1545    1524    1542    1563       1    1545    1566    1578    1596       1
    1542    1560    1578    1596       1    1539    1521    1536    1554       1
    1539    1521    1536    1557       1    1536    1554    1533    1551       1
    1536    1554    1569    1587       1    1533    1518    1530    1548       1
    1533    1554    1569    1587       1    1530    1518    1533    1551       1
    1530    1545    1566    1584       1    1527    1515    1524    1542       1
    1527    1515    1524    1545       1    1524    1542    1560    1581       1
    1524    1545    1530    1548       1    1524    1545    1566    1584       1
    1521    1512    1515    1527       1    1521    1536    1557    1575       1
    1518    1512    1515    1527       1    1518    1512    1521    1539       1
    1515    1512    1521    1539       1    1515    1524    1542    1563       1
    1512    1518    1530    1548       1    1512    1518    1533    1551       1
    1722    1710    1716    1725       1    1719    1707    1716    1725       1
    1713    1701    1710    1716       1    1713    1701    1710    1722       1
    1710    1716    1707    1719       1    1707    1716    1710    1722       1
    1701    1710    1716    1725       1    1698    1680    1701    1713       1
    1698    1707    1716    1725       1    1695    1677    1698    1707       1
    1692    1674    1686    1704       1    1689    1668    1686    1704       1
    1683    1665    1680    1698       1    1683    1665    1680    1701       1
    1680    1698    1677    1695       1    1680    1698    1707    1719       1
    1680    1701    1710    1722       1    1677    1698    1707    1719       1
    1674    1686    1668    1689       1    1671    1650    1668    1686       1
    1671    1650    1668    1689       1    1668    1686    1674    1692       1
    1665    1680    1701    1713       1    1662    1644    1665    1683       1
    1659    1641    1662    1677       1    1656    1638    1653    1674       1
    1653    1632    1650    1671       1    1653    1674    1686    1704       1
    1650    1668    1686    1704       1    1647    1629    1644    1662       1
    1647    1629    1644    1665       1    1644    1662    1641    1659       1
    1644    1662    1677    1695       1    1641    1626    1638    1656       1
    1641    1662    1677    1695       1    1638    1626    1641    1659       1
    1638    1653    1674    1692       1    1635    1623    1632    1650       1
    1635    1623    1632    1653       1    1632    1650    1668    1689       1
    1632    1653    1638    1656       1    1632    1653    1674    1692       1
    1629    1620    1623    1635       1    1629    1644    1665    1683       1
    1626    1620    1623    1635       1    1626    1620    1629    1647       1
    1623    1620    1629    1647       1    1623    1632    1650    1671       1
    1620    1626    1638    1656       1    1620    1626    1641    1659       1
    1830    1818    1824    1833       1    1827    1815    1824    1833       1
    1821    1809    1818    1824       1    1821    1809    1818    1830       1
    1818    1824    1815    1827       1    1815    1824    1818    1830       1
    1809    1818    1824    1833       1    1806    1788    1809    1821       1
    1806    1815    1824    1833       1    1803    1785    1806    1815       1
    1800    1782    1794    1812       1    1797    1776    1794    1812       1
    1791    1773    1788    1806       1    1791    1773    1788    1809       1
    1788    1806    1785    1803       1    1788    1806    1815    1827       1
    1788    1809    1818    1830       1    1785    1806    1815    1827       1
    1782    1794    1776    1797       1    1779    1758    1776    1794       1
    1779    1758    1776    1797       1    1776    1794    1782    1800       1
    1773    1788    1809    1821       1    1770    1752    1773    1791       1
    1767    1749    1770    1785       1    1764    1746    1761    1782       1
    1761    1740    1758    1779       1    1761    1782    1794    1812       1
    1758    1776    1794    1812       1    1755    1737    1752    1770       1
    1755    1737    1752    1773       1    1752    1770    1749    1767       1
    1752    1770    1785    1803       1    1749    1734    1746    1764       1
    1749    1770    1785    1803       1    1746    1734    1749    1767       1
    1746    1761    1782    1800       1    1743    1731    1740    1758       1
    1743    1731    1740    1761       1    1740    1758    1776    1797       1
    1740    1761    1746    1764       1    1740    1761    1782    1800       1
    1737    1728    1731    1743       1    1737    1752    1773    1791       1
    1734    1728    1731    1743       1    1734    1728    1737    1755       1
    1731    1728    1737    1755       1    1731    1740    1758    1779       1
    1728    1734    1746    1764       1    1728    1734    1749    1767       1
    1938    1926    1932    1941       1    1935    1923    1932    1941       1
    1929    1917    1926    1932       1    1929    1917    1926    1938       1
    1926    1932    1923    1935       1    1923    1932    1926    1938       1
    1917    1926    1932    1941       1    1914    1896    1917    1929       1
    1914    1923    1932    1941       1    1911    1893    1914    1923       1
    1908    1890    1902    1920       1    1905    1884    1902    1920       1
    1899    1881    1896    1914       1    1899    1881    1896    1917       1
    1896    1914    1893    1911       1    1896    1914    1923    1935       1
    1896    1917    1926    1938       1    1893    1914    1923    1935       1
    1890    1902    1884    1905       1    1887    1866    1884    1902       1
    1887    1866    1884    1905       1    1884    1902    1890    1908       1
    1881    1896    1917    1929       1    1878    1860    1881    1899       1
    1875    1857    1878    1893       1    1872    1854    1869    1890       1
    1869    1848    1866    1887       1    1869    1890    1902    1920       1
    1866    1884    1902    1920       1    1863    1845    1860    1878       1
    1863    1845    1860    1881       1    1860    1878    1857    1875       1
    1860    1878    1893    1911       1    1857    1842    1854    1872       1
    1857    1878    1893    1911       1    1854    1842    1857    1875       1
    1854    1869    1890    1908       1    1851    1839    1848    1866       1
    1851    1839    1848    1869       1    1848    1866    1884    1905       1
    1848    1869    1854    1872       1    1848    1869    1890    1908       1
    1845    1836    1839    1851       1    1845    1860    1881    1899       1
    1842    1836    1839    1851       1    1842    1836    1845    1863       1
    1839    1836    1845    1863       1    1839    1848    1866    1887       1
    1836    1842    1854    1872       1    1836    1842    1857    1875       1
    2046    2034    2040    2049       1    2043    2031    2040    2049       1
    2037    2025    2034    2040       1    2037    2025    2034    2046       1
    2034    2040    2031    2043       1    2031    2040    2034    2046       1
    2025    2034    2040    2049       1    2022    2004    2025    2037       1
    2022    2031    2040    2049       1    2019    2001    2022    2031       1
    2016    1998    2010    2028       1    2013    1992    2010    2028       1
    2007    1989    2004    2022       1    2007    1989    2004    2025       1
    2004    2022    2001    2019       1    2004    2022    2031    2043       1
    2004    2025    2034    2046       1    2001    2022    2031    2043       1
    1998    2010    1992    2013       1    1995    1974    1992    2010       1
    1995    1974    1992    2013       1    1992    2010    1998    2016       1
    1989    2004    2025    2037       1    1986    1968    1989    2007       1
    1983    1965    1986    2001       1    1980    1962    1977    1998       1
    1977    1956    1974    1995       1    1977    1998    2010    2028       1
    1974    1992    2010    2028       1    1971    1953    1968    1986       1
    1971    1953    1968    1989       1    1968    1986    1965    1983       1
    1968    1986    2001    2019       1    1965    1950    1962    1980       1
    1965    1986    2001    2019       1    1962    1950    1965    1983       1
    1962    1977    1998    2016       1    1959    1947    1956    1974       1
    1959    1947    1956    1977       1    1956    1974    1992    2013       1
    1956    1977    1962    1980       1    1956    1977    1998    2016       1
    1953    1944    1947    1959       1    1953    1968    1989    2007       1
    1950    1944    1947    1959       1    1950    1944    1953    1971       1
    1947    1944    1953    1971       1    1947    1956    1974    1995       1
    1944    1950    1962    1980       1    1944    1950    1965    1983       1
    2154    2142    2148    2157       1    2151    2139    2148    2157       1
    2145    2133    2142    2148       1    2145    2133    2142    2154       1
    2142    2148    2139    2151       1    2139    2148    2142    2154       1
    2133    2142    2148    2157       1    2130    2112    2133    2145       1
    2130    2139    2148    2157       1    2127    2109    2130    2139       1
    2124    2106    2118    2136       1    2121    2100    2118    2136       1
    2115    2097    2112    2130       1    2115    2097    2112    2133       1
    2112    2130    2109    2127       1    2112    2130    2139    2151       1
    2112    2133    2142    2154       1    2109    2130    2139    2151       1
    2106    2118    2100    2121       1    2103    2082    2100    2118       1
    2103    2082    2100    2121       1    2100    2118    2106    2124       1
    2097    2112    2133    2145       1    2094    2076    2097    2115       1
    2091    2073    2094    2109       1    2088    2070    2085    2106       1
    2085    2064    2082    2103       1    2085    2106    2118    2136       1
    2082    2100    2118    2136       1    2079    2061    2076    2094       1
    2079    2061    2076    2097       1    2076    2094    2073    2091       1
    2076    2094    2109    2127       1    2073    2058    2070    2088       1
    2073    2094    2109    2127       1    2070    2058    2073    2091       1
    2070    2085    2106    2124       1    2067    2055    2064    2082       1
    2067    2055    2064    2085       1    2064    2082    2100    2121       1
    2064    2085    2070    2088       1    2064    2085    2106    2124       1
    2061    2052    2055    2067       1    2061    2076    2097    2115       1
    2058    2052    2055    2067       1    2058    2052    2061    2079       1
    2055    2052    2061    2079       1    2055    2064    2082    2103       1
    2052    2058    2070    2088       1    2052    2058    2073    2091       1
    2262    2250    2256    2265       1    2259    2247    2256    2265       1
    2253    2241    2250    2256       1    2253    2241    2250    2262       1
    2250    2256    2247    2259       1    2247    2256    2250    2262       1
    2241    2250    2256    2265       1    2238    2220    2241    2253       1
    2238    2247    2256    2265       1    2235    2217    2238    2247       1
    2232    2214    2226    2244       1    2229    2208    2226    2244       1
    2223    2205    2220    2238       1    2223    2205    2220    2241       1
    2220    2238    2217    2235       1    2220    2238    2247    2259       1
    2220    2241    2250    2262       1    2217    2238    2247    2259       1
    2214    2226    2208    2229       1    2211    2190    2208    2226       1
    2211    2190    2208    2229       1    2208    2226    2214    2232       1
    2205    2220    2241    2253       1    2202    2184    2205    2223       1
    2199    2181    2202    2217       1    2196    2178    2193    2214       1
    2193    2172    2190    2211       1    2193    2214    2226    2244       1
    2190    2208    2226    2244       1    2187    2169    2184    2202       1
    2187    2169    2184    2205       1    2184    2202    2181    2199       1
    2184    2202    2217    2235       1    2181    2166    2178    2196       1
    2181    2202    2217    2235       1    2178    2166    2181    2199       1
    2178    2193    2214    2232       1    2175    2163    2172    2190       1
    2175    2163    2172    2193       1    2172    2190    2208    2229       1
    2172    2193    2178    2196       1    2172    2193    2214    2232       1
    2169    2160    2163    2175       1    2169    2184    2205    2223       1
    2166    2160    2163    2175       1    2166    2160    2169    2187       1
    2163    2160    2169    2187       1    2163    2172    2190    2211       1
    2160    2166    2178    2196       1    2160    2166    2181    2199       1
    2370    2358    2364    2373       1    2367    2355    2364    2373       1
    2361    2349    2358    2364       1    2361    2349    2358    2370       1
    2358    2364    2355    2367       1    2355    2364    2358    2370       1
    2349    2358    2364    2373       1    2346    2328    2349    2361       1
    2346    2355    2364    2373       1    2343    2325    2346    2355       1
    2340    2322    2334    2352       1    2337    2316    2334    2352       1
    2331    2313    2328    2346       1    2331    2313    2328    2349       1
    2328    2346    2325    2343       1    2328    2346    2355    2367       1
    2328    2349    2358    2370       1    2325    2346    2355    2367       1
    2322    2334    2316    2337       1    2319    2298    2316    2334       1
    2319    2298    2316    2337       1    2316    2334    2322    2340       1
    2313    2328    2349    2361       1    2310    2292    2313    2331       1
    2307    2289    2310    2325       1    2304    2286    2301    2322       1
    2301    2280    2298    2319       1    2301    2322    2334    2352       1
    2298    2316    2334    2352       1    2295    2277    2292    2310       1
    2295    2277    2292    2313       1    2292    2310    2289    2307       1
    2292    2310    2325    2343       1    2289    2274    2286    2304       1
    2289    2310    2325    2343       1    2286    2274    2289    2307       1
    2286    2301    2322    2340       1    2283    2271    2280    2298       1
    2283    2271    2280    2301       1    2280    2298    2316    2337       1
    2280    2301    2286    2304       1    2280    2301    2322    2340       1
    2277    2268    2271    2283       1    2277    2292    2313    2331       1
    2274    2268    2271    2283       1    2274    2268    2277    2295       1
    2271    2268    2277    2295       1    2271    2280    2298    2319       1
    2268    2274    2286    2304       1    2268    2274    2289    2307       1
    2478    2466    2472    2481       1    2475    2463    2472    2481       1
    2469    2457    2466    2472       1    2469    2457    2466    2478       1
    2466    2472    2463    2475       1    2463    2472    2466    2478       1
    2457    2466    2472    2481       1    2454    2436    2457    2469       1
    2454    2463    2472    2481       1    2451    2433    2454    2463       1
    2448    2430    2442    2460       1    2445    2424    2442    2460       1
    2439    2421    2436    2454       1    2439    2421    2436    2457       1
    2436    2454    2433    2451       1    2436    2454    2463    2475       1
    2436    2457    2466    2478       1    2433    2454    2463    2475       1
    2430    2442    2424    2445       1    2427    2406    2424    2442       1
    2427    2406    2424    2445       1    2424    2442    2430    2448       1
    2421    2436    2457    2469       1    2418    2400    2421    2439       1
    2415    2397    2418    2433       1    2412    2394    2409    2430       1
    2409    2388    2406    2427       1    2409    2430    2442    2460       1
    2406    2424    2442    2460       1    2403    2385    2400    2418       1
    2403    2385    2400    2421       1    2400    2418    2397    2415       1
    2400    2418    2433    2451       1    2397    2382    2394    2412       1
    2397    2418    2433    2451       1    2394    2382    2397    2415       1
    2394    2409    2430    2448       1    2391    2379    2388    2406       1
    2391    2379    2388    2409       1    2388    2406    2424    2445       1
    2388    2409    2394    2412       1    2388    2409    2430    2448       1
    2385    2376    2379    2391       1    2385    2400    2421    2439       1
    2382    2376    2379    2391       1    2382    2376    2385    2403       1
    2379    2376    2385    2403       1    2379    2388    2406    2427       1
    2376    2382    2394    2412       1    2376    2382    2397    2415       1
    2586    2574    2580    2589       1    2583    2571    2580    2589       1
    2577    2565    2574    2580       1    2577    2565    2574    2586       1
    2574    2580    2571    2583       1    2571    2580    2574    2586       1
    2565    2574    2580    2589       1    2562    2544    2565    2577       1
    2562    2571    2580    2589       1    2559    2541    2562    2571       1
    2556    2538    2550    2568       1    2553    2532    2550    2568       1
    2547    2529    2544    2562       1    2547    2529    2544    2565       1
    2544    2562    2541    2559       1    2544    2562    2571    2583       1
    2544    2565    2574    2586       1    2541    2562    2571    2583       1
    2538    2550    2532    2553       1    2535    2514    2532    2550       1
    2535    2514    2532    2553       1    2532    2550    2538    2556       1
    2529    2544    2565    2577       1    2526    2508    2529    2547       1
    2523    2505    2526    2541       1    2520    2502    2517    2538       1
    2517    2496    2514    2535       1    2517    2538    2550    2568       1
    2514    2532    2550    2568       1    2511    2493    2508    2526       1
    2511    2493    2508    2529       1    2508    2526    2505    2523       1
    2508    2526    2541    2559       1    2505    2490    2502    2520       1
    2505    2526    2541    2559       1    2502    2490    2505    2523       1
    2502    2517    2538    2556       1    2499    2487    2496    2514       1
    2499    2487    2496    2517       1    2496    2514    2532    2553       1
    2496    2517    2502    2520       1    2496    2517    2538    2556       1
    2493    2484    2487    2499       1    2493    2508    2529    2547       1
    2490    2484    2487    2499       1    2490    2484    2493    2511       1
    2487    2484    2493    2511       1    2487    2496    2514    2535       1
    2484    2490    2502    2520       1    2484    2490    2505    2523       1
    2694    2682    2688    2697       1    2691    2679    2688    2697       1
    2685    2673    2682    2688       1    2685    2673    2682    2694       1
    2682    2688    2679    2691       1    2679    2688    2682    2694       1
    2673    2682    2688    2697       1    2670    2652    2673    2685       1
    2670    2679    2688    2697       1    2667    2649    2670    2679       1
    2664    2646    2658    2676       1    2661    2640    2658    2676       1
    2655    2637    2652    2670       1    2655    2637    2652    2673       1
    2652    2670    2649    2667       1    2652    2670    2679    2691       1
    2652    2673    2682    2694       1    2649    2670    2679    2691       1
    2646    2658    2640    2661       1    2643    2622    2640    2658       1
    2643    2622    2640    2661       1    2640    2658    2646    2664       1
    2637    2652    2673    2685       1    2634    2616    2637    2655       1
    2631    2613    2634    2649       1    2628    2610    2625    2646       1
    2625    2604    2622    2643       1    2625    2646    2658    2676       1
    2622    2640    2658    2676       1    2619    2601    2616    2634       1
    2619    2601    2616    2637       1    2616    2634    2613    2631       1
    2616    2634    2649    2667       1    2613    2598    2610    2628       1
    2613    2634    2649    2667       1    2610    2598    2613    2631       1
    2610    2625    2646    2664       1    2607    2595    2604    2622       1
    2607    2595    2604    2625       1    2604    2622    2640    2661       1
    2604    2625    2610    2628       1    2604    2625    2646    2664       1
    2601    2592    2595    2607       1    2601    2616    2637    2655       1
    2598    2592    2595    2607       1    2598    2592    2601    2619       1
    2595    2592    2601    2619       1    2595    2604    2622    2643       1
    2592    2598    2610    2628       1    2592    2598    2613    2631       1
    2802    2790    2796    2805       1    2799    2787    2796    2805       1
    2793    2781    2790    2796       1    2793    2781    2790    2802       1
    2790    2796    2787    2799       1    2787    2796    2790    2802       1
    2781    2790    2796    2805       1    2778    2760    2781    2793       1
    2778    2787    2796    2805       1    2775    2757    2778    2787       1
    2772    2754    2766    2784       1    2769    2748    2766    2784       1
    2763    2745    2760    2778       1    2763    2745    2760    2781       1
    2760    2778    2757    2775       1    2760    2778    2787    2799       1
    2760    2781    2790    2802       1    2757    2778    2787    2799       1
    2754    2766    2748    2769       1    2751    2730    2748    2766       1
    2751    2730    2748    2769       1    2748    2766    2754    2772       1
    2745    2760    2781    2793       1    2742    2724    2745    2763       1
    2739    2721    2742    2757       1    2736    2718    2733    2754       1
    2733    2712    2730    2751       1    2733    2754    2766    2784       1
    2730    2748    2766    2784       1    2727    2709    2724    2742       1
    2727    2709    2724    2745       1    2724    2742    2721    2739       1
    2724    2742    2757    2775       1    2721    2706    2718    2736       1
    2721    2742    2757    2775       1    2718    2706    2721    2739       1
    2718    2733    2754    2772       1    2715    2703    2712    2730       1
    2715    2703    2712    2733       1    2712    2730    2748    2769       1
    2712    2733    2718    2736       1    2712    2733    2754    2772       1
    2709    2700    2703    2715       1    2709    2724    2745    2763       1
    2706    2700    2703    2715       1    2706    2700    2709    2727       1
    2703    2700    2709    2727       1    2703    2712    2730    2751       1
    2700    2706    2718    2736       1    2700    2706    2721    2739       1
    2910    2898    2904    2913       1    2907    2895    2904    2913       1
    2901    2889    2898    2904       1    2901    2889    2898    2910       1
    2898    2904    2895    2907       1    2895    2904    2898    2910       1
    2889    2898    2904    2913       1    2886    2868    2889    2901       1
    2886    2895    2904    2913       1    2883    2865    2886    2895       1
    2880    2862    2874    2892       1    2877    2856    2874    2892       1
    2871    2853    2868    2886       1    2871    2853    2868    2889       1
    2868    2886    2865    2883       1    2868    2886    2895    2907       1
    2868    2889    2898    2910       1    2865    2886    2895    2907       1
    2862    2874    2856    2877       1    2859    2838    2856    2874       1
    2859    2838    2856    2877       1    2856    2874    2862    2880       1
    2853    2868    2889    2901       1    2850    2832    2853    2871       1
    2847    2829    2850    2865       1    2844    2826    2841    2862       1
    2841    2820    2838    2859       1    2841    2862    2874    2892       1
    2838    2856    2874    2892       1    2835    2817    2832    2850       1
    2835    2817    2832    2853       1    2832    2850    2829    2847       1
    2832    2850    2865    2883       1    2829    2814    2826    2844       1
    2829    2850    2865    2883       1    2826    2814    2829    2847       1
    2826    2841    2862    2880       1    2823    2811    2820    2838       1
    2823    2811    2820    2841       1    2820    2838    2856    2877       1
    2820    2841    2826    2844       1    2820    2841    2862    2880       1
    2817    2808    2811    2823       1    2817    2832    2853    2871       1
    2814    2808    2811    2823       1    2814    2808    2817    2835       1
    2811    2808    2817    2835       1    2811    2820    2838    2859       1
    2808    2814    2826    2844       1    2808    2814    2829    2847       1
    3018    3006    3012    3021       1    3015    3003    3012    3021       1
    3009    2997    3006    3012       1    3009    2997    3006    3018       1
    3006    3012    3003    3015       1    3003    3012    3006    3018       1
    2997    3006    3012    3021       1    2994    2976    2997    3009       1
    2994    3003    3012    3021       1    2991    2973    2994    3003       1
    2988    2970    2982    3000       1    2985    2964    2982    3000       1
    2979    2961    2976    2994       1    2979    2961    2976    2997       1
    2976    2994    2973    2991       1    2976    2994    3003    3015       1
    2976    2997    3006    3018       1    2973    2994    3003    3015       1
    2970    2982    2964    2985       1    2967    2946    2964    2982       1
    2967    2946    2964    2985       1    2964    2982    2970    2988       1
    2961    2976    2997    3009       1    2958    2940    2961    2979       1
    2955    2937    2958    2973       1    2952    2934    2949    2970       1
    2949    2928    2946    2967       1    2949    2970    2982    3000       1
    2946    2964    2982    3000       1    2943    2925    2940    2958       1
    2943    2925    2940    2961       1    2940    2958    2937    2955       1
    2940    2958    2973    2991       1    2937    2922    2934    2952       1
    2937    2958    2973    2991       1    2934    2922    2937    2955       1
    2934    2949    2970    2988       1    2931    2919    2928    2946       1
    2931    2919    2928    2949       1    2928    2946    2964    2985       1
    2928    2949    2934    2952       1    2928    2949    2970    2988       1
    2925    2916    2919    2931       1    2925    2940    2961    2979       1
    2922    2916    2919    2931       1    2922    2916    2925    2943       1
    2919    2916    2925    2943       1    2919    2928    2946    2967       1
    2916    2922    2934    2952       1    2916    2922    2937    2955       1
    3126    3114    3120    3129       1    3123    3111    3120    3129       1
    3117    3105    3114    3120       1    3117    3105    3114    3126       1
    3114    3120    3111    3123       1    3111    3120    3114    3126       1
    3105    3114    3120    3129       1    3102    3084    3105    3117       1
    3102    3111    3120    3129       1    3099    3081    3102    3111       1
    3096    3078    3090    3108       1    3093    3072    3090    3108       1
    3087    3069    3084    3102       1    3087    3069    3084    3105       1
    3084    3102    3081    3099       1    3084    3102    3111    3123       1
    3084    3105    3114    3126       1    3081    3102    3111    3123       1
    3078    3090    3072    3093       1    3075    3054    3072    3090       1
    3075    3054    3072    3093       1    3072    3090    3078    3096       1
    3069    3084    3105    3117       1    3066    3048    3069    3087       1
    3063    3045    3066    3081       1    3060    3042    3057    3078       1
    3057    3036    3054    3075       1    3057    3078    3090    3108       1
    3054    3072    3090    3108       1    3051    3033    3048    3066       1
    3051    3033    3048    3069       1    3048    3066    3045    3063       1
    3048    3066    3081    3099       1    3045    3030    3042    3060       1
    3045    3066    3081    3099       1    3042    3030    3045    3063       1
    3042    3057    3078    3096       1    3039    3027    3036    3054       1
    3039    3027    3036    3057       1    3036    3054    3072    3093       1
    3036    3057    3042    3060       1    3036    3057    3078    3096       1
    3033    3024    3027    3039       1    3033    3048    3069    3087       1
    3030    3024    3027    3039       1    3030    3024    3033    3051       1
    3027    3024    3033    3051       1    3027    3036    3054    3075       1
    3024    3030    3042    3060       1    3024    3030    3045    3063       1
    3234    3222    3228    3237       1    3231    3219    3228    3237       1
    3225    3213    3222    3228       1    3225    3213    3222    3234       1
    3222    3228    3219    3231       1    3219    3228    3222    3234       1
    3213    3222    3228    3237       1    3210    3192    3213    3225       1
    3210    3219    3228    3237       1    3207    3189    3210    3219       1
    3204    3186    3198    3216       1    3201    3180    3198    3216       1
    3195    3177    3192    3210       1    3195    3177    3192    3213       1
    3192    3210    3189    3207       1    3192    3210    3219    3231       1
    3192    3213    3222    3234       1    3189    3210    3219    3231       1
    3186    3198    3180    3201       1    3183    3162    3180    3198       1
    3183    3162    3180    3201       1    3180    3198    3186    3204       1
    3177    3192    3213    3225       1    3174    3156    3177    3195       1
    3171    3153    3174    3189       1    3168    3150    3165    3186       1
    3165    3144    3162    3183       1    3165    3186    3198    3216       1
    3162    3180    3198    3216       1    3159    3141    3156    3174       1
    3159    3141    3156    3177       1    3156    3174    3153    3171       1
    3156    3174    3189    3207       1    3153    3138    3150    3168       1
    3153    3174    3189    3207       1    3150    3138    3153    3171       1
    3150    3165    3186    3204       1    3147    3135    3144    3162       1
    3147    3135    3144    3165       1    3144    3162    3180    3201       1
    3144    3165    3150    3168       1    3144    3165    3186    3204       1
    3141    3132    3135    3147       1    3141    3156    3177    3195       1
    3138    3132    3135    3147       1    3138    3132    3141    3159       1
    3135    3132    3141    3159       1    3135    3144    3162    3183       1
    3132    3138    3150    3168       1    3132    3138    3153    3171       1
    3342    3330    3336    3345       1    3339    3327    3336    3345       1
    3333    3321    3330    3336       1    3333    3321    3330    3342       1
    3330    3336    3327    3339       1    3327    3336    3330    3342       1
    3321    3330    3336    3345       1    3318    3300    3321    3333       1
    3318    3327    3336    3345       1    3315    3297    3318    3327       1
    3312    3294    3306    3324       1    3309    3288    3306    3324       1
    3303    3285    3300    3318       1    3303    3285    3300    3321       1
    3300    3318    3297    3315       1    3300    3318    3327    3339       1
    3300    3321    3330    3342       1    3297    3318    3327    3339       1
    3294    3306    3288    3309       1    3291    3270    3288    3306       1
    3291    3270    3288    3309       1    3288    3306    3294    3312       1
    3285    3300    3321    3333       1    3282    3264    3285    3303       1
    3279    3261    3282    3297       1    3276    3258    3273    3294       1
    3273    3252    3270    3291       1    3273    3294    3306    3324       1
    3270    3288    3306    3324       1    3267    3249    3264    3282       1
    3267    3249    3264    3285       1    3264    3282    3261    3279       1
    3264    3282    3297    3315       1    3261    3246    3258    3276       1
    3261    3282    3297    3315       1    3258    3246    3261    3279       1
    3258    3273    3294    3312       1    3255    3243    3252    3270       1
    3255    3243    3252    3273       1    3252    3270    3288    3309       1
    3252    3273    3258    3276       1    3252    3273    3294    3312       1
    3249    3240    3243    3255       1    3249    3264    3285    3303       1
    3246    3240    3243    3255       1    3246    3240    3249    3267       1
    3243    3240    3249    3267       1    3243    3252    3270    3291       1
    3240    3246    3258    3276       1    3240    3246    3261    3279       1
    3450    3438    3444    3453       1    3447    3435    3444    3453       1
    3441    3429    3438    3444       1    3441    3429    3438    3450       1
    3438    3444    3435    3447       1    3435    3444    3438    3450       1
    3429    3438    3444    3453       1    3426    3408    3429    3441       1
    3426    3435    3444    3453       1    3423    3405    3426    3435       1
    3420    3402    3414    3432       1    3417    3396    3414    3432       1
    3411    3393    3408    3426       1    3411    3393    3408    3429       1
    3408    3426    3405    3423       1    3408    3426    3435    3447       1
    3408    3429    3438    3450       1    3405    3426    3435    3447       1
    3402    3414    3396    3417       1    3399    3378    3396    3414       1
    3399    3378    3396    3417       1    3396    3414    3402    3420       1
    3393    3408    3429    3441       1    3390    3372    3393    3411       1
    3387    3369    3390    3405       1    3384    3366    3381    3402       1
    3381    3360    3378    3399       1    3381    3402    3414    3432       1
    3378    3396    3414    3432       1    3375    3357    3372    3390       1
    3375    3357    3372    3393       1    3372    3390    3369    3387       1
    3372    3390    3405    3423       1    3369    3354    3366    3384       1
    3369    3390    3405    3423       1    3366    3354    3369    3387       1
    3366    3381    3402    3420       1    3363    3351    3360    3378       1
    3363    3351    3360    3381       1    3360    3378    3396    3417       1
    3360    3381    3366    3384       1    3360    3381    3402    3420       1
    3357    3348    3351    3363       1    3357    3372    3393    3411       1
    3354    3348    3351    3363       1    3354    3348    3357    3375       1
    3351    3348    3357    3375       1    3351    3360    3378    3399       1
    3348    3354    3366    3384       1    3348    3354    3369    3387       1
    3558    3546    3552    3561       1    3555    3543    3552    3561       1
    3549    3537    3546    3552       1    3549    3537    3546    3558       1
    3546    3552    3543    3555       1    3543    3552    3546    3558       1
    3537    3546    3552    3561       1    3534    3516    3537    3549       1
    3534    3543    3552    3561       1    3531    3513    3534    3543       1
    3528    3510    3522    3540       1    3525    3504    3522    3540       1
    3519    3501    3516    3534       1    3519    3501    3516    3537       1
    3516    3534    3513    3531       1    3516    3534    3543    3555       1
    3516    3537    3546    3558       1    3513    3534    3543    3555       1
    3510    3522    3504    3525       1    3507    3486    3504    3522       1
    3507    3486    3504    3525       1    3504    3522    3510    3528       1
    3501    3516    3537    3549       1    3498    3480    3501    3519       1
    3495    3477    3498    3513       1    3492    3474    3489    3510       1
    3489    3468    3486    3507       1    3489    3510    3522    3540       1
    3486    3504    3522    3540       1    3483    3465    3480    3498       1
    3483    3465    3480    3501       1    3480    3498    3477    3495       1
    3480    3498    3513    3531       1    3477    3462    3474    3492       1
    3477    3498    3513    3531       1    3474    3462    3477    3495       1
    3474    3489    3510    3528       1    3471    3459    3468    3486       1
    3471    3459    3468    3489       1    3468    3486    3504    3525       1
    3468    3489    3474    3492       1    3468    3489    3510    3528       1
    3465    3456    3459    3471       1    3465    3480    3501    3519       1
    3462    3456    3459    3471       1    3462    3456    3465    3483       1
    3459    3456    3465    3483       1    3459    3468    3486    3507       1
    3456    3462    3474    3492       1    3456    3462    3477    3495       1
    3666    3654    3660    3669       1    3663    3651    3660    3669       1
    3657    3645    3654    3660       1    3657    3645    3654    3666       1
    3654    3660    3651    3663       1    3651    3660    3654    3666       1
    3645    3654    3660    3669       1    3642    3624    3645    3657       1
    3642    3651    3660    3669       1    3639    3621    3642    3651       1
    3636    3618    3630    3648       1    3633    3612    3630    3648       1
    3627    3609    3624    3642       1    3627    3609    3624    3645       1
    3624    3642    3621    3639       1    3624    3642    3651    3663       1
    3624    3645    3654    3666       1    3621    3642    3651    3663       1
    3618    3630    3612    3633       1    3615    3594    3612    3630       1
    3615    3594    3612    3633       1    3612    3630    3618    3636       1
    3609    3624    3645    3657       1    3606    3588    3609    3627       1
    3603    3585    3606    3621       1    3600    3582    3597    3618       1
    3597    3576    3594    3615       1    3597    3618    3630    3648       1
    3594    3612    3630    3648       1    3591    3573    3588    3606       1
    3591    3573    3588    3609       1    3588    3606    3585    3603       1
    3588    3606    3621    3639       1    3585    3570    3582    3600       1
    3585    3606    3621    3639       1    3582    3570    3585    3603       1
    3582    3597    3618    3636       1    3579    3567    3576    3594       1
    3579    3567    3576    3597       1    3576    3594    3612    3633       1
    3576    3597    3582    3600       1    3576    3597    3618    3636       1
    3573    3564    3567    3579       1    3573    3588    3609    3627       1
    3570    3564    3567    3579       1    3570    3564    3573    3591       1
    3567    3564    3573    3591       1    3567    3576    3594    3615       1
    3564    3570    3582    3600       1    3564    3570    3585    3603       1
    3774    3762    3768    3777       1    3771    3759    3768    3777       1
    3765    3753    3762    3768       1    3765    3753    3762    3774       1
    3762    3768    3759    3771       1    3759    3768    3762    3774       1
    3753    3762    3768    3777       1    3750    3732    3753    3765       1
    3750    3759    3768    3777       1    3747    3729    3750    3759       1
    3744    3726    3738    3756       1    3741    3720    3738    3756       1
    3735    3717    3732    3750       1    3735    3717    3732    3753       1
    3732    3750    3729    3747       1    3732    3750    3759    3771       1
    3732    3753    3762    3774       1    3729    3750    3759    3771       1
    3726    3738    3720    3741       1    3723    3702    3720    3738       1
    3723    3702    3720    3741       1    3720    3738    3726    3744       1
    3717    3732    3753    3765       1    3714    3696    3717    3735       1
    3711    3693    3714    3729       1    3708    3690    3705    3726       1
    3705    3684    3702    3723       1    3705    3726    3738    3756       1
    3702    3720    3738    3756       1    3699    3681    3696    3714       1
    3699    3681    3696    3717       1    3696    3714    3693    3711       1
    3696    3714    3729    3747       1    3693    3678    3690    3708       1
    3693    3714    3729    3747       1    3690    3678    3693    3711       1
    3690    3705    3726    3744       1    3687    3675    3684    3702       1
    3687    3675    3684    3705       1    3684    3702    3720    3741       1
    3684    3705    3690    3708       1    3684    3705    3726    3744       1
    3681    3672    3675    3687       1    3681    3696    3717    3735       1
    3678    3672    3675    3687       1    3678    3672    3681    3699       1
    3675    3672    3681    3699       1    3675    3684    3702    3723       1
    3672    3678    3690    3708       1    3672    3678    3693    3711       1
    3882    3870    3876    3885       1    3879    3867    3876    3885       1
    3873    3861    3870    3876       1    3873    3861    3870    3882       1
    3870    3876    3867    3879       1    3867    3876    3870    3882       1
    3861    3870    3876    3885       1    3858    3840    3861    3873       1
    3858    3867    3876    3885       1    3855    3837    3858    3867       1
    3852    3834    3846    3864       1    3849    3828    3846    3864       1
    3843    3825    3840    3858       1    3843    3825    3840    3861       1
    3840    3858    3837    3855       1    3840    3858    3867    3879       1
    3840    3861    3870    3882       1    3837    3858    3867    3879       1
    3834    3846    3828    3849       1    3831    3810    3828    3846       1
    3831    3810    3828    3849       1    3828    3846    3834    3852       1
    3825    3840    3861    3873       1    3822    3804    3825    3843       1
    3819    3801    3822    3837       1    3816    3798    3813    3834       1
    3813    3792    3810    3831       1    3813    3834    3846    3864       1
    3810    3828    3846    3864       1    3807    3789    3804    3822       1
    3807    3789    3804    3825       1    3804    3822    3801    3819       1
    3804    3822    3837    3855       1    3801    3786    3798    3816       1
    3801    3822    3837    3855       1    3798    3786    3801    3819       1
    3798    3813    3834    3852       1    3795    3783    3792    3810       1
    3795    3783    3792    3813       1    3792    3810    3828    3849       1
    3792    3813    3798    3816       1    3792    3813    3834    3852       1
    3789    3780    3783    3795       1    3789    3804    3825    3843       1
    3786    3780    3783    3795       1    3786    3780    3789    3807       1
    3783    3780    3789    3807       1    3783    3792    3810    3831       1
    3780    3786    3798    3816       1    3780    3786    3801    3819       1
    3990    3978    3984    3993       1    3987    3975    3984    3993       1
    3981    3969    3978    3984       1    3981    3969    3978    3990       1
    3978    3984    3975    3987       1    3975    3984    3978    3990       1
    3969    3978    3984    3993       1    3966    3948    3969    3981       1
    3966    3975    3984    3993       1    3963    3945    3966    3975       1
    3960    3942    3954    3972       1    3957    3936    3954    3972       1
    3951    3933    3948    3966       1    3951    3933    3948    3969       1
    3948    3966    3945    3963       1    3948    3966    3975    3987       1
    3948    3969    3978    3990       1    3945    3966    3975    3987       1
    3942    3954    3936    3957       1    3939    3918    3936    3954       1
    3939    3918    3936    3957       1    3936    3954    3942    3960       1
    3933    3948    3969    3981       1    3930    3912    3933    3951       1
    3927    3909    3930    3945       1    3924    3906    3921    3942       1
    3921    3900    3918    3939       1    3921    3942    3954    3972       1
    3918    3936    3954    3972       1    3915    3897    3912    3930       1
    3915    3897    3912    3933       1    3912    3930    3909    3927       1
    3912    3930    3945    3963       1    3909    3894    3906    3924       1
    3909    3930    3945    3963       1    3906    3894    3909    3927       1
    3906    3921    3942    3960       1    3903    3891    3900    3918       1
    3903    3891    3900    3921       1    3900    3918    3936    3957       1
    3900    3921    3906    3924       1    3900    3921    3942    3960       1
    3897    3888    3891    3903       1    3897    3912    3933    3951       1
    3894    3888    3891    3903       1    3894    3888    3897    3915       1
    3891    3888    3897    3915       1    3891    3900    3918    3939       1
    3888    3894    3906    3924       1    3888    3894    3909    3927       1
    4098    4086    4092    4101       1    4095    4083    4092    4101       1
    4089    4077    4086    4092       1    4089    4077    4086    4098       1
    4086    4092    4083    4095       1    4083    4092    4086    4098       1
    4077    4086    4092    4101       1    4074    4056    4077    4089       1
    4074    4083    4092    4101       1    4071    4053    4074    4083       1
    4068    4050    4062    4080       1    4065    4044    4062    4080       1
    4059    4041    4056    4074       1    4059    4041    4056    4077       1
    4056    4074    4053    4071       1    4056    4074    4083    4095       1
    4056    4077    4086    4098       1    4053    4074    4083    4095       1
    4050    4062    4044    4065       1    4047    4026    4044    4062       1
    4047    4026    4044    4065       1    4044    4062    4050    4068       1
    4041    4056    4077    4089       1    4038    4020    4041    4059       1
    4035    4017    4038    4053       1    4032    4014    4029    4050       1
    4029    4008    4026    4047       1    4029    4050    4062    4080       1
    4026    4044    4062    4080       1    4023    4005    4020    4038       1
    4023    4005    4020    4041       1    4020    4038    4017    4035       1
    4020    4038    4053    4071       1    4017    4002    4014    4032       1
    4017    4038    4053    4071       1    4014    4002    4017    4035       1
    4014    4029    4050    4068       1    4011    3999    4008    4026       1
    4011    3999    4008    4029       1    4008    4026    4044    4065       1
    4008    4029    4014    4032       1    4008    4029    4050    4068       1
    4005    3996    3999    4011       1    4005    4020    4041    4059       1
    4002    3996    3999    4011       1    4002    3996    4005    4023       1
    3999    3996    4005    4023       1    3999    4008    4026    4047       1
    3996    4002    4014    4032       1    3996    4002    4017    4035       1
    4206    4194    4200    4209       1    4203    4191    4200    4209       1
    4197    4185    4194    4200       1    4197    4185    4194    4206       1
    4194    4200    4191    4203       1    4191    4200    4194    4206       1
    4185    4194    4200    4209       1    4182    4164    4185    4197       1
    4182    4191    4200    4209       1    4179    4161    4182    4191       1
    4176    4158    4170    4188       1    4173    4152    4170    4188       1
    4167    4149    4164    4182       1    4167    4149    4164    4185       1
    4164    4182    4161    4179       1    4164    4182    4191    4203       1
    4164    4185    4194    4206       1    4161    4182    4191    4203       1
    4158    4170    4152    4173       1    4155    4134    4152    4170       1
    4155    4134    4152    4173       1    4152    4170    4158    4176       1
    4149    4164    4185    4197       1    4146    4128    4149    4167       1
    4143    4125    4146    4161       1    4140    4122    4137    4158       1
    4137    4116    4134    4155       1    4137    4158    4170    4188       1
    4134    4152    4170    4188       1    4131    4113    4128    4146       1
    4131    4113    4128    4149       1    4128    4146    4125    4143       1
    4128    4146    4161    4179       1    4125    4110    4122    4140       1
    4125    4146    4161    4179       1    4122    4110    4125    4143       1
    4122    4137    4158    4176       1    4119    4107    4116    4134       1
    4119    4107    4116    4137       1    4116    4134    4152    4173       1
    4116    4137    4122    4140       1    4116    4137    4158    4176       1
    4113    4104    4107    4119       1    4113    4128    4149    4167       1
    4110    4104    4107    4119       1    4110    4104    4113    4131       1
    4107    4104    4113    4131       1    4107    4116    4134    4155       1
    4104    4110    4122    4140       1    4104    4110    4125    4143       1
    4314    4302    4308    4317       1    4311    4299    4308    4317       1
    4305    4293    4302    4308       1    4305    4293    4302    4314       1
    4302    4308    4299    4311       1    4299    4308    4302    4314       1
    4293    4302    4308    4317       1    4290    4272    4293    4305       1
    4290    4299    4308    4317       1    4287    4269    4290    4299       1
    4284    4266    4278    4296       1    4281    4260    4278    4296       1
    4275    4257    4272    4290       1    4275    4257    4272    4293       1
    4272    4290    4269    4287       1    4272    4290    4299    4311       1
    4272    4293    4302    4314       1    4269    4290    4299    4311       1
    4266    4278    4260    4281       1    4263    4242    4260    4278       1
    4263    4242    4260    4281       1    4260    4278    4266    4284       1
    4257    4272    4293    4305       1    4254    4236    4257    4275       1
    4251    4233    4254    4269       1    4248    4230    4245    4266       1
    4245    4224    4242    4263       1    4245    4266    4278    4296       1
    4242    4260    4278    4296       1    4239    4221    4236    4254       1
    4239    4221    4236    4257       1    4236    4254    4233    4251       1
    4236    4254    4269    4287       1    4233    4218    4230    4248       1
    4233    4254    4269    4287       1    4230    4218    4233    4251       1
    4230    4245    4266    4284       1    4227    4215    4224    4242       1
    4227    4215    4224    4245       1    4224    4242    4260    4281       1
    4224    4245    4230    4248       1    4224    4245    4266    4284       1
    4221    4212    4215    4227       1    4221    4236    4257    4275       1
    4218    4212    4215    4227       1    4218    4212    4221    4239       1
    4215    4212    4221    4239       1    4215    4224    4242    4263       1
    4212    4218    4230    4248       1    4212    4218    4233    4251       1
    4422    4410    4416    4425       1    4419    4407    4416    4425       1
    4413    4401    4410    4416       1    4413    4401    4410    4422       1
    4410    4416    4407    4419       1    4407    4416    4410    4422       1
    4401    4410    4416    4425       1    4398    4380    4401    4413       1
    4398    4407    4416    4425       1    4395    4377    4398    4407       1
    4392    4374    4386    4404       1    4389    4368    4386    4404       1
    4383    4365    4380    4398       1    4383    4365    4380    4401       1
    4380    4398    4377    4395       1    4380    4398    4407    4419       1
    4380    4401    4410    4422       1    4377    4398    4407    4419       1
    4374    4386    4368    4389       1    4371    4350    4368    4386       1
    4371    4350    4368    4389       1    4368    4386    4374    4392       1
    4365    4380    4401    4413       1    4362    4344    4365    4383       1
    4359    4341    4362    4377       1    4356    4338    4353    4374       1
    4353    4332    4350    4371       1    4353    4374    4386    4404       1
    4350    4368    4386    4404       1    4347    4329    4344    4362       1
    4347    4329    4344    4365       1    4344    4362    4341    4359       1
    4344    4362    4377    4395       1    4341    4326    4338    4356       1
    4341    4362    4377    4395       1    4338    4326    4341    4359       1
    4338    4353    4374    4392       1    4335    4323    4332    4350       1
    4335    4323    4332    4353       1    4332    4350    4368    4389       1
    4332    4353    4338    4356       1    4332    4353    4374    4392       1
    4329    4320    4323    4335       1    4329    4344    4365    4383       1
    4326    4320    4323    4335       1    4326    4320    4329    4347       1
    4323    4320    4329    4347       1    4323    4332    4350    4371       1
    4320    4326    4338    4356       1    4320    4326    4341    4359       1
    4530    4518    4524    4533       1    4527    4515    4524    4533       1
    4521    4509    4518    4524       1    4521    4509    4518    4530       1
    4518    4524    4515    4527       1    4515    4524    4518    4530       1
    4509    4518    4524    4533       1    4506    4488    4509    4521       1
    4506    4515    4524    4533       1    4503    4485    4506    4515       1
    4500    4482    4494    4512       1    4497    4476    4494    4512       1
    4491    4473    4488    4506       1    4491    4473    4488    4509       1
    4488    4506    4485    4503       1    4488    4506    4515    4527       1
    4488    4509    4518    4530       1    4485    4506    4515    4527       1
    4482    4494    4476    4497       1    4479    4458    4476    4494       1
    4479    4458    4476    4497       1    4476    4494    4482    4500       1
    4473    4488    4509    4521       1    4470    4452    4473    4491       1
    4467    4449    4470    4485       1    4464    4446    4461    4482       1
    4461    4440    4458    4479       1    4461    4482    4494    4512       1
    4458    4476    4494    4512       1    4455    4437    4452    4470       1
    4455    4437    4452    4473       1    4452    4470    4449    4467       1
    4452    4470    4485    4503       1    4449    4434    4446    4464       1
    4449    4470    4485    4503       1    4446    4434    4449    4467       1
    4446    4461    4482    4500       1    4443    4431    4440    4458       1
    4443    4431    4440    4461       1    4440    4458    4476    4497       1
    4440    4461    4446    4464       1    4440    4461    4482    4500       1
    4437    4428    4431    4443       1    4437    4452    4473    4491       1
    4434    4428    4431    4443       1    4434    4428    4437    4455       1
    4431    4428    4437    4455       1    4431    4440    4458    4479       1
    4428    4434    4446    4464       1    4428    4434    4449    4467       1
    4638    4626    4632    4641       1    4635    4623    4632    4641       1
    4629    4617    4626    4632       1    4629    4617    4626    4638       1
    4626    4632    4623    4635       1    4623    4632    4626    4638       1
    4617    4626    4632    4641       1    4614    4596    4617    4629       1
    4614    4623    4632    4641       1    4611    4593    4614    4623       1
    4608    4590    4602    4620       1    4605    4584    4602    4620       1
    4599    4581    4596    4614       1    4599    4581    4596    4617       1
    4596    4614    4593    4611       1    4596    4614    4623    4635       1
    4596    4617    4626    4638       1    4593    4614    4623    4635       1
    4590    4602    4584    4605       1    4587    4566    4584    4602       1
    4587    4566    4584    4605       1    4584    4602    4590    4608       1
    4581    4596    4617    4629       1    4578    4560    4581    4599       1
    4575    4557    4578    4593       1    4572    4554    4569    4590       1
    4569    4548    4566    4587       1    4569    4590    4602    4620       1
    4566    4584    4602    4620       1    4563    4545    4560    4578       1
    4563    4545    4560    4581       1    4560    4578    4557    4575       1
    4560    4578    4593    4611       1    4557    4542    4554    4572       1
    4557    4578    4593    4611       1    4554    4542    4557    4575       1
    4554    4569    4590    4608       1    4551    4539    4548    4566       1
    4551    4539    4548    4569       1    4548    4566    4584    4605       1
    4548    4569    4554    4572       1    4548    4569    4590    4608       1
    4545    4536    4539    4551       1    4545    4560    4581    4599       1
    4542    4536    4539    4551       1    4542    4536    4545    4563       1
    4539    4536    4545    4563       1    4539    4548    4566    4587       1
    4536    4542    4554    4572       1    4536    4542    4557    4575       1
    4746    4734    4740    4749       1    4743    4731    4740    4749       1
    4737    4725    4734    4740       1    4737    4725    4734    4746       1
    4734    4740    4731    4743       1    4731    4740    4734    4746       1
    4725    4734    4740    4749       1    4722    4704    4725    4737       1
    4722    4731    4740    4749       1    4719    4701    4722    4731       1
    4716    4698    4710    4728       1    4713    4692    4710    4728       1
    4707    4689    4704    4722       1    4707    4689    4704    4725       1
    4704    4722    4701    4719       1    4704    4722    4731    4743       1
    4704    4725    4734    4746       1    4701    4722    4731    4743       1
    4698    4710    4692    4713       1    4695    4674    4692    4710       1
    4695    4674    4692    4713       1    4692    4710    4698    4716       1
    4689    4704    4725    4737       1    4686    4668    4689    4707       1
    4683    4665    4686    4701       1    4680    4662    4677    4698       1
    4677    4656    4674    4695       1    4677    4698    4710    4728       1
    4674    4692    4710    4728       1    4671    4653    4668    4686       1
    4671    4653    4668    4689       1    4668    4686    4665    4683       1
    4668    4686    4701    4719       1    4665    4650    4662    4680       1
    4665    4686    4701    4719       1    4662    4650    4665    4683       1
    4662    4677    4698    4716       1    4659    4647    4656    4674       1
    4659    4647    4656    4677       1    4656    4674    4692    4713       1
    4656    4677    4662    4680       1    4656    4677    4698    4716       1
    4653    4644    4647    4659       1    4653    4668    4689    4707       1
    4650    4644    4647    4659       1    4650    4644    4653    4671       1
    4647    4644    4653    4671       1    4647    4656    4674    4695       1
    4644    4650    4662    4680       1    4644    4650    4665    4683       1
    4854    4842    4848    4857       1    4851    4839    4848    4857       1
    4845    4833    4842    4848       1    4845    4833    4842    4854       1
    4842    4848    4839    4851       1    4839    4848    4842    4854       1
    4833    4842    4848    4857       1    4830    4812    4833    4845       1
    4830    4839    4848    4857       1    4827    4809    4830    4839       1
    4824    4806    4818    4836       1    4821    4800    4818    4836       1
    4815    4797    4812    4830       1    4815    4797    4812    4833       1
    4812    4830    4809    4827       1    4812    4830    4839    4851       1
    4812    4833    4842    4854       1    4809    4830    4839    4851       1
    4806    4818    4800    4821       1    4803    4782    4800    4818       1
    4803    4782    4800    4821       1    4800    4818    4806    4824       1
    4797    4812    4833    4845       1    4794    4776    4797    4815       1
    4791    4773    4794    4809       1    4788    4770    4785    4806       1
    4785    4764    4782    4803       1    4785    4806    4818    4836       1
    4782    4800    4818    4836       1    4779    4761    4776    4794       1
    4779    4761    4776    4797       1    4776    4794    4773    4791       1
    4776    4794    4809    4827       1    4773    4758    4770    4788       1
    4773    4794    4809    4827       1    4770    4758    4773    4791       1
    4770    4785    4806    4824       1    4767    4755    4764    4782       1
    4767    4755    4764    4785       1    4764    4782    4800    4821       1
    4764    4785    4770    4788       1    4764    4785    4806    4824       1
    4761    4752    4755    4767       1    4761    4776    4797    4815       1
    4758    4752    4755    4767       1    4758    4752    4761    4779       1
    4755    4752    4761    4779       1    4755    4764    4782    4803       1
    4752    4758    4770    4788       1    4752    4758    4773    4791       1
    4962    4950    4956    4965       1    4959    4947    4956    4965       1
    4953    4941    4950    4956       1    4953    4941    4950    4962       1
    4950    4956    4947    4959       1    4947    4956    4950    4962       1
    4941    4950    4956    4965       1    4938    4920    4941    4953       1
    4938    4947    4956    4965       1    4935    4917    4938    4947       1
    4932    4914    4926    4944       1    4929    4908    4926    4944       1
    4923    4905    4920    4938       1    4923    4905    4920    4941       1
    4920    4938    4917    4935       1    4920    4938    4947    4959       1
    4920    4941    4950    4962       1    4917    4938    4947    4959       1
    4914    4926    4908    4929       1    4911    4890    4908    4926       1
    4911    4890    4908    4929       1    4908    4926    4914    4932       1
    4905    4920    4941    4953       1    4902    4884    4905    4923       1
    4899    4881    4902    4917       1    4896    4878    4893    4914       1
    4893    4872    4890    4911       1    4893    4914    4926    4944       1
    4890    4908    4926    4944       1    4887    4869    4884    4902       1
    4887    4869    4884    4905       1    4884    4902    4881    4899       1
    4884    4902    4917    4935       1    4881    4866    4878    4896       1
    4881    4902    4917    4935       1    4878    4866    4881    4899       1
    4878    4893    4914    4932       1    4875    4863    4872    4890       1
    4875    4863    4872    4893       1    4872    4890    4908    4929       1
    4872    4893    4878    4896       1    4872    4893    4914    4932       1
    4869    4860    4863    4875       1    4869    4884    4905    4923       1
    4866    4860    4863    4875       1    4866    4860    4869    4887       1
    4863    4860    4869    4887       1    4863    4872    4890    4911       1
    4860    4866    4878    4896       1    4860    4866    4881    4899       1
    5070    5058    5064    5073       1    5067    5055    5064    5073       1
    5061    5049    5058    5064       1    5061    5049    5058    5070       1
    5058    5064    5055    5067       1    5055    5064    5058    5070       1
    5049    5058    5064    5073       1    5046    5028    5049    5061       1
    5046    5055    5064    5073       1    5043    5025    5046    5055       1
    5040    5022    5034    5052       1    5037    5016    5034    5052       1
    5031    5013    5028    5046       1    5031    5013    5028    5049       1
    5028    5046    5025    5043       1    5028    5046    5055    5067       1
    5028    5049    5058    5070       1    5025    5046    5055    5067       1
    5022    5034    5016    5037       1    5019    4998    5016    5034       1
    5019    4998    5016    5037       1    5016    5034    5022    5040       1
    5013    5028    5049    5061       1    5010    4992    5013    5031       1
    5007    4989    5010    5025       1    5004    4986    5001    5022       1
    5001    4980    4998    5019       1    5001    5022    5034    5052       1
    4998    5016    5034    5052       1    4995    4977    4992    5010       1
    4995    4977    4992    5013       1    4992    5010    4989    5007       1
    4992    5010    5025    5043       1    4989    4974    4986    5004       1
    4989    5010    5025    5043       1    4986    4974    4989    5007       1
    4986    5001    5022    5040       1    4983    4971    4980    4998       1
    4983    4971    4980    5001       1    4980    4998    5016    5037       1
    4980    5001    4986    5004       1    4980    5001    5022    5040       1
    4977    4968    4971    4983       1    4977    4992    5013    5031       1
    4974    4968    4971    4983       1    4974    4968    4977    4995       1
    4971    4968    4977    4995       1    4971    4980    4998    5019       1
    4968    4974    4986    5004       1    4968    4974    4989    5007       1
    5178    5166    5172    5181       1    5175    5163    5172    5181       1
    5169    5157    5166    5172       1    5169    5157    5166    5178       1
    5166    5172    5163    5175       1    5163    5172    5166    5178       1
    5157    5166    5172    5181       1    5154    5136    5157    5169       1
    5154    5163    5172    5181       1    5151    5133    5154    5163       1
    5148    5130    5142    5160       1    5145    5124    5142    5160       1
    5139    5121    5136    5154       1    5139    5121    5136    5157       1
    5136    5154    5133    5151       1    5136    5154    5163    5175       1
    5136    5157    5166    5178       1    5133    5154    5163    5175       1
    5130    5142    5124    5145       1    5127    5106    5124    5142       1
    5127    5106    5124    5145       1    5124    5142    5130    5148       1
    5121    5136    5157    5169       1    5118    5100    5121    5139       1
    5115    5097    5118    5133       1    5112    5094    5109    5130       1
    5109    5088    5106    5127       1    5109    5130    5142    5160       1
    5106    5124    5142    5160       1    5103    5085    5100    5118       1
    5103    5085    5100    5121       1    5100    5118    5097    5115       1
    5100    5118    5133    5151       1    5097    5082    5094    5112       1
    5097    5118    5133    5151       1    5094    5082    5097    5115       1
    5094    5109    5130    5148       1    5091    5079    5088    5106       1
    5091    5079    5088    5109       1    5088    5106    5124    5145       1
    5088    5109    5094    5112       1    5088    5109    5130    5148       1
    5085    5076    5079    5091       1    5085    5100    5121    5139       1
    5082    5076    5079    5091       1    5082    5076    5085    5103       1
    5079    5076    5085    5103       1    5079    5088    5106    5127       1
    5076    5082    5094    5112       1    5076    5082    5097    5115       1
    5286    5274    5280    5289       1    5283    5271    5280    5289       1
    5277    5265    5274    5280       1    5277    5265    5274    5286       1
    5274    5280    5271    5283       1    5271    5280    5274    5286       1
    5265    5274    5280    5289       1    5262    5244    5265    5277       1
    5262    5271    5280    5289       1    5259    5241    5262    5271       1
    5256    5238    5250    5268       1    5253    5232    5250    5268       1
    5247    5229    5244    5262       1    5247    5229    5244    5265       1
    5244    5262    5241    5259       1    5244    5262    5271    5283       1
    5244    5265    5274    5286       1    5241    5262    5271    5283       1
    5238    5250    5232    5253       1    5235    5214    5232    5250       1
    5235    5214    5232    5253       1    5232    5250    5238    5256       1
    5229    5244    5265    5277       1    5226    5208    5229    5247       1
    5223    5205    5226    5241       1    5220    5202    5217    5238       1
    5217    5196    5214    5235       1    5217    5238    5250    5268       1
    5214    5232    5250    5268       1    5211    5193    5208    5226       1
    5211    5193    5208    5229       1    5208    5226    5205    5223       1
    5208    5226    5241    5259       1    5205    5190    5202    5220       1
    5205    5226    5241    5259       1    5202    5190    5205    5223       1
    5202    5217    5238    5256       1    5199    5187    5196    5214       1
    5199    5187    5196    5217       1    5196    5214    5232    5253       1
    5196    5217    5202    5220       1    5196    5217    5238    5256       1
    5193    5184    5187    5199       1    5193    5208    5229    5247       1
    5190    5184    5187    5199       1    5190    5184    5193    5211       1
    5187    5184    5193    5211       1    5187    5196    5214    5235       1
    5184    5190    5202    5220       1    5184    5190    5205    5223       1
    5394    5382    5388    5397       1    5391    5379    5388    5397       1
    5385    5373    5382    5388       1    5385    5373    5382    5394       1
    5382    5388    5379    5391       1    5379    5388    5382    5394       1
    5373    5382    5388    5397       1    5370    5352    5373    5385       1
    5370    5379    5388    5397       1    5367    5349    5370    5379       1
    5364    5346    5358    5376       1    5361    5340    5358    5376       1
    5355    5337    5352    5370       1    5355    5337    5352    5373       1
    5352    5370    5349    5367       1    5352    5370    5379    5391       1
    5352    5373    5382    5394       1    5349    5370    5379    5391       1
    5346    5358    5340    5361       1    5343    5322    5340    5358       1
    5343    5322    5340    5361       1    5340    5358    5346    5364       1
    5337    5352    5373    5385       1    5334    5316    5337    5355       1
    5331    5313    5334    5349       1    5328    5310    5325    5346       1
    5325    5304    5322    5343       1    5325    5346    5358    5376       1
    5322    5340    5358    5376       1    5319    5301    5316    5334       1
    5319    5301    5316    5337       1    5316    5334    5313    5331       1
    5316    5334    5349    5367       1    5313    5298    5310    5328       1
    5313    5334    5349    5367       1    5310    5298    5313    5331       1
    5310    5325    5346    5364       1    5307    5295    5304    5322       1
    5307    5295    5304    5325       1    5304    5322    5340    5361       1
    5304    5325    5310    5328       1    5304    5325    5346    5364       1
    5301    5292    5295    5307       1    5301    5316    5337    5355       1
    5298    5292    5295    5307       1    5298    5292    5301    5319       1
    5295    5292    5301    5319       1    5295    5304    5322    5343       1
    5292    5298    5310    5328       1    5292    5298    5313    5331       1
    5502    5490    5496    5505       1    5499    5487    5496    5505       1
    5493    5481    5490    5496       1    5493    5481    5490    5502       1
    5490    5496    5487    5499       1    5487    5496    5490    5502       1
    5481    5490    5496    5505       1    5478    5460    5481    5493       1
    5478    5487    5496    5505       1    5475    5457    5478    5487       1
    5472    5454    5466    5484       1    5469    5448    5466    5484       1
    5463    5445    5460    5478       1    5463    5445    5460    5481       1
    5460    5478    5457    5475       1    5460    5478    5487    5499       1
    5460    5481    5490    5502       1    5457    5478    5487    5499       1
    5454    5466    5448    5469       1    5451    5430    5448    5466       1
    5451    5430    5448    5469       1    5448    5466    5454    5472       1
    5445    5460    5481    5493       1    5442    5424    5445    5463       1
    5439    5421    5442    5457       1    5436    5418    5433    5454       1
    5433    5412    5430    5451       1    5433    5454    5466    5484       1
    5430    5448    5466    5484       1    5427    5409    5424    5442       1
    5427    5409    5424    5445       1    5424    5442    5421    5439       1
    5424    5442    5457    5475       1    5421    5406    5418    5436       1
    5421    5442    5457    5475       1    5418    5406    5421    5439       1
    5418    5433    5454    5472       1    5415    5403    5412    5430       1
    5415    5403    5412    5433       1    5412    5430    5448    5469       1
    5412    5433    5418    5436       1    5412    5433    5454    5472       1
    5409    5400    5403    5415       1    5409    5424    5445    5463       1
    5406    5400    5403    5415       1    5406    5400    5409    5427       1
    5403    5400    5409    5427       1    5403    5412    5430    5451       1
    5400    5406    5418    5436       1    5400    5406    5421    5439       1
    5610    5598    5604    5613       1    5607    5595    5604    5613       1
    5601    5589    5598    5604       1    5601    5589    5598    5610       1
    5598    5604    5595    5607       1    5595    5604    5598    5610       1
    5589    5598    5604    5613       1    5586    5568    5589    5601       1
    5586    5595    5604    5613       1    5583    5565    5586    5595       1
    5580    5562    5574    5592       1    5577    5556    5574    5592       1
    5571    5553    5568    5586       1    5571    5553    5568    5589       1
    5568    5586    5565    5583       1    5568    5586    5595    5607       1
    5568    5589    5598    5610       1    5565    5586    5595    5607       1
    5562    5574    5556    5577       1    5559    5538    5556    5574       1
    5559    5538    5556    5577       1    5556    5574    5562    5580       1
    5553    5568    5589    5601       1    5550    5532    5553    5571       1
    5547    5529    5550    5565       1    5544    5526    5541    5562       1
    5541    5520    5538    5559       1    5541    5562    5574    5592       1
    5538    5556    5574    5592       1    5535    5517    5532    5550       1
    5535    5517    5532    5553       1    5532    5550    5529    5547       1
    5532    5550    5565    5583       1    5529    5514    5526    5544       1
    5529    5550    5565    5583       1    5526    5514    5529    5547       1
    5526    5541    5562    5580       1    5523    5511    5520    5538       1
    5523    5511    5520    5541       1    5520    5538    5556    5577       1
    5520    5541    5526    5544       1    5520    5541    5562    5580       1
    5517    5508    5511    5523       1    5517    5532    5553    5571       1
    5514    5508    5511    5523       1    5514    5508    5517    5535       1
    5511    5508    5517    5535       1    5511    5520    5538    5559       1
    5508    5514    5526    5544       1    5508    5514    5529    5547       1
    5718    5706    5712    5721       1    5715    5703    5712    5721       1
    5709    5697    5706    5712       1    5709    5697    5706    5718       1
    5706    5712    5703    5715       1    5703    5712    5706    5718       1
    5697    5706    5712    5721       1    5694    5676    5697    5709       1
    5694    5703    5712    5721       1    5691    5673    5694    5703       1
    5688    5670    5682    5700       1    5685    5664    5682    5700       1
    5679    5661    5676    5694       1    5679    5661    5676    5697       1
    5676    5694    5673    5691       1    5676    5694    5703    5715       1
    5676    5697    5706    5718       1    5673    5694    5703    5715       1
    5670    5682    5664    5685       1    5667    5646    5664    5682       1
    5667    5646    5664    5685       1    5664    5682    5670    5688       1
    5661    5676    5697    5709       1    5658    5640    5661    5679       1
    5655    5637    5658    5673       1    5652    5634    5649    5670       1
    5649    5628    5646    5667       1    5649    5670    5682    5700       1
    5646    5664    5682    5700       1    5643    5625    5640    5658       1
    5643    5625    5640    5661       1    5640    5658    5637    5655       1
    5640    5658    5673    5691       1    5637    5622    5634    5652       1
    5637    5658    5673    5691       1    5634    5622    5637    5655       1
    5634    5649    5670    5688       1    5631    5619    5628    5646       1
    5631    5619    5628    5649       1    5628    5646    5664    5685       1
    5628    5649    5634    5652       1    5628    5649    5670    5688       1
    5625    5616    5619    5631       1    5625    5640    5661    5679       1
    5622    5616    5619    5631       1    5622    5616    5625    5643       1
    5619    5616    5625    5643       1    5619    5628    5646    5667       1
    5616    5622    5634    5652       1    5616    5622    5637    5655       1
    5826    5814    5820    5829       1    5823    5811    5820    5829       1
    5817    5805    5814    5820       1    5817    5805    5814    5826       1
    5814    5820    5811    5823       1    5811    5820    5814    5826       1
    5805    5814    5820    5829       1    5802    5784    5805    5817       1
    5802    5811    5820    5829       1    5799    5781    5802    5811       1
    5796    5778    5790    5808       1    5793    5772    5790    5808       1
    5787    5769    5784    5802       1    5787    5769    5784    5805       1
    5784    5802    5781    5799       1    5784    5802    5811    5823       1
    5784    5805    5814    5826       1    5781    5802    5811    5823       1
    5778    5790    5772    5793       1    5775    5754    5772    5790       1
    5775    5754    5772    5793       1    5772    5790    5778    5796       1
    5769    5784    5805    5817       1    5766    5748    5769    5787       1
    5763    5745    5766    5781       1    5760    5742    5757    5778       1
    5757    5736    5754    5775       1    5757    5778    5790    5808       1
    5754    5772    5790    5808       1    5751    5733    5748    5766       1
    5751    5733    5748    5769       1    5748    5766    5745    5763       1
    5748    5766    5781    5799       1    5745    5730    5742    5760       1
    5745    5766    5781    5799       1    5742    5730    5745    5763       1
    5742    5757    5778    5796       1    5739    5727    5736    5754       1
    5739    5727    5736    5757       1    5736    5754    5772    5793       1
    5736    5757    5742    5760       1    5736    5757    5778    5796       1
    5733    5724    5727    5739       1    5733    5748    5769    5787       1
    5730    5724    5727    5739       1    5730    5724    5733    5751       1
    5727    5724    5733    5751       1    5727    5736    5754    5775       1
    5724    5730    5742    5760       1    5724    5730    5745    5763       1
      87      90     -96    -105       2      81      96     -90    -102       2
      78      96     -87     -99       2      60      90     -81     -93       2
      48      54     -66     -84       2      42      78     -57     -75       2
      33      66     -54     -72       2      30      66     -48     -69       2
      24      60     -45     -63       2      12      48     -30     -51       2
       6      42     -21     -39       2       6      33     -18     -36       2
       0      24      -9     -27       2       0      12      -3     -15       2
     195     198    -204    -213       2     189     204    -198    -210       2
     186     204    -195    -207       2     168     198    -189    -201       2
     156     162    -174    -192       2     150     186    -165    -183       2
     141     174    -162    -180       2     138     174    -156    -177       2
     132     168    -153    -171       2     120     156    -138    -159       2
     114     150    -129    -147       2     114     141    -126    -144       2
     108     132    -117    -135       2     108     120    -111    -123       2
     303     306    -312    -321       2     297     312    -306    -318       2
     294     312    -303    -315       2     276     306    -297    -309       2
     264     270    -282    -300       2     258     294    -273    -291       2
     249     282    -270    -288       2     246     282    -264    -285       2
     240     276    -261    -279       2     228     264    -246    -267       2
     222     258    -237    -255       2     222     249    -234    -252       2
     216     240    -225    -243       2     216     228    -219    -231       2
     411     414    -420    -429       2     405     420    -414    -426       2
     402     420    -411    -423       2     384     414    -405    -417       2
     372     378    -390    -408       2     366     402    -381    -399       2
     357     390    -378    -396       2     354     390    -372    -393       2
     348     384    -369    -387       2     336     372    -354    -375       2
     330     366    -345    -363       2     330     357    -342    -360       2
     324     348    -333    -351       2     324     336    -327    -339       2
     519     522    -528    -537       2     513     528    -522    -534       2
     510     528    -519    -531       2     492     522    -513    -525       2
     480     486    -498    -516       2     474     510    -489    -507       2
     465     498    -486    -504       2     462     498    -480    -501       2
     456     492    -477    -495       2     444     480    -462    -483       2
     438     474    -453    -471       2     438     465    -450    -468       2
     432     456    -441    -459       2     432     444    -435    -447       2
     627     630    -636    -645       2     621     636    -630    -642       2
     618     636    -627    -639       2     600     630    -621    -633       2
     588     594    -606    -624       2     582     618    -597    -615       2
     573     606    -594    -612       2     570     606    -588    -609       2
     564     600    -585    -603       2     552     588    -570    -591       2
     546     582    -561    -579       2     546     573    -558    -576       2
     540     564    -549    -567       2     540     552    -543    -555       2
     735     738    -744    -753       2     729     744    -738    -750       2
     726     744    -735    -747       2     708     738    -729    -741       2
     696     702    -714    -732       2     690     726    -705    -723       2
     681     714    -702    -720       2     678     714    -696    -717       2
     672     708    -693    -711       2     660     696    -678    -699       2
     654     690    -669    -687       2     654     681    -666    -684       2
     648     672    -657    -675       2     648     660    -651    -663       2
     843     846    -852    -861       2     837     852    -846    -858       2
     834     852    -843    -855       2     816     846    -837    -849       2
     804     810    -822    -840       2     798     834    -813    -831       2
     789     822    -810    -828       2     786     822    -804    -825       2
     780     816    -801    -819       2     768     804    -786    -807       2
     762     798    -777    -795       2     762     789    -774    -792       2
     756     780    -765    -783       2     756     768    -759    -771       2
     951     954    -960    -969       2     945     960    -954    -966       2
     942     960    -951    -963       2     924     954    -945    -957       2
     912     918    -930    -948       2     906     942    -921    -939       2
     897     930    -918    -936       2     894     930    -912    -933       2
     888     924    -909    -927       2     876     912    -894    -915       2
     870     906    -885    -903       2     870     897    -882    -900       2
     864     888    -873    -891       2     864     876    -867    -879       2
    1059    1062   -1068   -1077       2    1053    1068   -1062   -1074       2
    1050    1068   -1059   -1071       2    1032    1062   -1053   -1065       2
    1020    1026   -1038   -1056       2    1014    1050   -1029   -1047       2
    1005    1038   -1026   -1044       2    1002    1038   -1020   -1041       2
     996    1032   -1017   -1035       2     984    1020   -1002   -1023       2
     978    1014    -993   -1011       2     978    1005    -990   -1008       2
     972     996    -981    -999       2     972     984    -975    -987       2
    1167    1170   -1176   -1185       2    1161    1176   -1170   -1182       2
    1158    1176   -1167   -1179       2    1140    1170   -1161   -1173       2
    1128    1134   -1146   -1164       2    1122    1158   -1137   -1155       2
    1113    1146   -1134   -1152       2    1110    1146   -1128   -1149       2
    1104    1140   -1125   -1143       2    1092    1128   -1110   -1131       2
    1086    1122   -1101   -1119       2    1086    1113   -1098   -1116       2
    1080    1104   -1089   -1107       2    1080    1092   -1083   -1095       2
    1275    1278   -1284   -1293       2    1269    1284   -1278   -1290       2
    1266    1284   -1275   -1287       2    1248    1278   -1269   -1281       2
    1236    1242   -1254   -1272       2    1230    1266   -1245   -1263       2
    1221    1254   -1242   -1260       2    1218    1254   -1236   -1257       2
    1212    1248   -1233   -1251       2    1200    1236   -1218   -1239       2
    1194    1230   -1209   -1227       2    1194    1221   -1206   -1224       2
    1188    1212   -1197   -1215       2    1188    1200   -1191   -1203       2
    1383    1386   -1392   -1401       2    1377    1392   -1386   -1398       2
    1374    1392   -1383   -1395       2    1356    1386   -1377   -1389       2
    1344    1350   -1362   -1380       2    1338    1374   -1353   -1371       2
    1329    1362   -1350   -1368       2    1326    1362   -1344   -1365       2
    1320    1356   -1341   -1359       2    1308    1344   -1326   -1347       2
    1302    1338   -1317   -1335       2    1302    1329   -1314   -1332       2
    1296    1320   -1305   -1323       2    1296    1308   -1299   -1311       2
    1491    1494   -1500   -1509       2    1485    1500   -1494   -1506       2
    1482    1500   -1491   -1503       2    1464    1494   -1485   -1497       2
    1452    1458   -1470   -1488       2    1446    1482   -1461   -1479       2
    1437    1470   -1458   -1476       2    1434    1470   -1452   -1473       2
    1428    1464   -1449   -1467       2    1416    1452   -1434   -1455       2
    1410    1446   -1425   -1443       2    1410    1437   -1422   -1440       2
    1404    1428   -1413   -1431       2    1404    1416   -1407   -1419       2
    1599    1602   -1608   -1617       2    1593    1608   -1602   -1614       2
    1590    1608   -1599   -1611       2    1572    1602   -1593   -1605       2
    1560    1566   -1578   -1596       2    1554    1590   -1569   -1587       2
    1545    1578   -1566   -1584       2    1542    1578   -1560   -1581       2
    1536    1572   -1557   -1575       2    1524    1560   -1542   -1563       2
    1518    1554   -1533   -1551       2    1518    1545   -1530   -1548       2
    1512    1536   -1521   -1539       2    1512    1524   -1515   -1527       2
    1707    1710   -1716   -1725       2    1701    1716   -1710   -1722       2
    1698    1716   -1707   -1719       2    1680    1710   -1701   -1713       2
    1668    1674   -1686   -1704       2    1662    1698   -1677   -1695       2
    1653    1686   -1674   -1692       2    1650    1686   -1668   -1689       2
    1644    1680   -1665   -1683       2    1632    1668   -1650   -1671       2
    1626    1662   -1641   -1659       2    1626    1653   -1638   -1656       2
    1620    1644   -1629   -1647       2    1620    1632   -1623   -1635       2
    1815    1818   -1824   -1833       2    1809    1824   -1818   -1830       2
    1806    1824   -1815   -1827       2    1788    1818   -1809   -1821       2
    1776    1782   -1794   -1812       2    1770    1806   -1785   -1803       2
    1761    1794   -1782   -1800       2    1758    1794   -1776   -1797       2
    1752    1788   -1773   -1791       2    1740    1776   -1758   -1779       2
    1734    1770   -1749   -1767       2    1734    1761   -1746   -1764       2
    1728    1752   -1737   -1755       2    1728    1740   -1731   -1743       2
    1923    1926   -1932   -1941       2    1917    1932   -1926   -1938       2
    1914    1932   -1923   -1935       2    1896    1926   -1917   -1929       2
    1884    1890   -1902   -1920       2    1878    1914   -1893   -1911       2
    1869    1902   -1890   -1908       2    1866    1902   -1884   -1905       2
    1860    1896   -1881   -1899       2    1848    1884   -1866   -1887       2
    1842    1878   -1857   -1875       2    1842    1869   -1854   -1872       2
    1836    1860   -1845   -1863       2    1836    1848   -1839   -1851       2
    2031    2034   -2040   -2049       2    2025    2040   -2034   -2046       2
    2022    2040   -2031   -2043       2    2004    2034   -2025   -2037       2
    1992    1998   -2010   -2028       2    1986    2022   -2001   -2019       2
    1977    2010   -1998   -2016       2    1974    2010   -1992   -2013       2
    1968    2004   -1989   -2007       2    1956    1992   -1974   -1995       2
    1950    1986   -1965   -1983       2    1950    1977   -1962   -1980       2
    1944    1968   -1953   -1971       2    1944    1956   -1947   -1959       2
    2139    2142   -2148   -2157       2    2133    2148   -2142   -2154       2
    2130    2148   -2139   -2151       2    2112    2142   -2133   -2145       2
    2100    2106   -2118   -2136       2    2094    2130   -2109   -2127       2
    2085    2118   -2106   -2124       2    2082    2118   -2100   -2121       2
    2076    2112   -2097   -2115       2    2064    2100   -2082   -2103       2
    2058    2094   -2073   -2091       2    2058    2085   -2070   -2088       2
    2052    2076   -2061   -2079       2    2052    2064   -2055   -2067       2
    2247    2250   -2256   -2265       2    2241    2256   -2250   -2262       2
    2238    2256   -2247   -2259       2    2220    2250   -2241   -2253       2
    2208    2214   -2226   -2244       2    2202    2238   -2217   -2235       2
    2193    2226   -2214   -2232       2    2190    2226   -2208   -2229       2
    2184    2220   -2205   -2223       2    2172    2208   -2190   -2211       2
    2166    2202   -2181   -2199       2    2166    2193   -2178   -2196       2
    2160    2184   -2169   -2187       2    2160    2172   -2163   -2175       2
    2355    2358   -2364   -2373       2    2349    2364   -2358   -2370       2
    2346    2364   -2355   -2367       2    2328    2358   -2349   -2361       2
    2316    2322   -2334   -2352       2    2310    2346   -2325   -2343       2
    2301    2334   -2322   -2340       2    2298    2334   -2316   -2337       2
    2292    2328   -2313   -2331       2    2280    2316   -2298   -2319       2
    2274    2310   -2289   -2307       2    2274    2301   -2286   -2304       2
    2268    2292   -2277   -2295       2    2268    2280   -2271   -2283       2
    2463    2466   -2472   -2481       2    2457    2472   -2466   -2478       2
    2454    2472   -2463   -2475       2    2436    2466   -2457   -2469       2
    2424    2430   -2442   -2460       2    2418    2454   -2433   -2451       2
    2409    2442   -2430   -2448       2    2406    2442   -2424   -2445       2
    2400    2436   -2421   -2439       2    2388    2424   -2406   -2427       2
    2382    2418   -2397   -2415       2    2382    2409   -2394   -2412       2
    2376    2400   -2385   -2403       2    2376    2388   -2379   -2391       2
    2571    2574   -2580   -2589       2    2565    2580   -2574   -2586       2
    2562    2580   -2571   -2583       2    2544    2574   -2565   -2577       2
    2532    2538   -2550   -2568       2    2526    2562   -2541   -2559       2
    2517    2550   -2538   -2556       2    2514    2550   -2532   -2553       2
    2508    2544   -2529   -2547       2    2496    2532   -2514   -2535       2
    2490    2526   -2505   -2523       2    2490    2517   -2502   -2520       2
    2484    2508   -2493   -2511       2    2484    2496   -2487   -2499       2
    2679    2682   -2688   -2697       2    2673    2688   -2682   -2694       2
    2670    2688   -2679   -2691       2    2652    2682   -2673   -2685       2
    2640    2646   -2658   -2676       2    2634    2670   -2649   -2667       2
    2625    2658   -2646   -2664       2    2622    2658   -2640   -2661       2
    2616    2652   -2637   -2655       2    2604    2640   -2622   -2643       2
    2598    2634   -2613   -2631       2    2598    2625   -2610   -2628       2
    2592    2616   -2601   -2619       2    2592    2604   -2595   -2607       2
    2787    2790   -2796   -2805       2    2781    2796   -2790   -2802       2
    2778    2796   -2787   -2799       2    2760    2790   -2781   -2793       2
    2748    2754   -2766   -2784       2    2742    2778   -2757   -2775       2
    2733    2766   -2754   -2772       2    2730    2766   -2748   -2769       2
    2724    2760   -2745   -2763       2    2712    2748   -2730   -2751       2
    2706    2742   -2721   -2739       2    2706    2733   -2718   -2736       2
    2700    2724   -2709   -2727       2    2700    2712   -2703   -2715       2
    2895    2898   -2904   -2913       2    2889    2904   -2898   -2910       2
    2886    2904   -2895   -2907       2    2868    2898   -2889   -2901       2
    2856    2862   -2874   -2892       2    2850    2886   -2865   -2883       2
    2841    2874   -2862   -2880       2    2838    2874   -2856   -2877       2
    2832    2868   -2853   -2871       2    2820    2856   -2838   -2859       2
    2814    2850   -2829   -2847       2    2814    2841   -2826   -2844       2
    2808    2832   -2817   -2835       2    2808    2820   -2811   -2823       2
    3003    3006   -3012   -3021       2    2997    3012   -3006   -3018       2
    2994    3012   -3003   -3015       2    2976    3006   -2997   -3009       2
    2964    2970   -2982   -3000       2    2958    2994   -2973   -2991       2
    2949    2982   -2970   -2988       2    2946    2982   -2964   -2985       2
    2940    2976   -2961   -2979       2    2928    2964   -2946   -2967       2
    2922    2958   -2937   -2955       2    2922    2949   -2934   -2952       2
    2916    2940   -2925   -2943       2    2916    2928   -2919   -2931       2
    3111    3114   -3120   -3129       2    3105    3120   -3114   -3126       2
    3102    3120   -3111   -3123       2    3084    3114   -3105   -3117       2
    3072    3078   -3090   -3108       2    3066    3102   -3081   -3099       2
    3057    3090   -3078   -3096       2    3054    3090   -3072   -3093       2
    3048    3084   -3069   -3087       2    3036    3072   -3054   -3075       2
    3030    3066   -3045   -3063       2    3030    3057   -3042   -3060       2
    3024    3048   -3033   -3051       2    3024    3036   -3027   -3039       2
    3219    3222   -3228   -3237       2    3213    3228   -3222   -3234       2
    3210    3228   -3219   -3231       2    3192    3222   -3213   -3225       2
    3180    3186   -3198   -3216       2    3174    3210   -3189   -3207       2
    3165    3198   -3186   -3204       2    3162    3198   -3180   -3201       2
    3156    3192   -3177   -3195       2    3144    3180   -3162   -3183       2
    3138    3174   -3153   -3171       2    3138    3165   -3150   -3168       2
    3132    3156   -3141   -3159       2    3132    3144   -3135   -3147       2
    3327    3330   -3336   -3345       2    3321    3336   -3330   -3342       2
    3318    3336   -3327   -3339       2    3300    3330   -3321   -3333       2
    3288    3294   -3306   -3324       2    3282    3318   -3297   -3315       2
    3273    3306   -3294   -3312       2    3270    3306   -3288   -3309       2
    3264    3300   -3285   -3303       2    3252    3288   -3270   -3291       2
    3246    3282   -3261   -3279       2    3246    3273   -3258   -3276       2
    3240    3264   -3249   -3267       2    3240    3252   -3243   -3255       2
    3435    3438   -3444   -3453       2    3429    3444   -3438   -3450       2
    3426    3444   -3435   -3447       2    3408    3438   -3429   -3441       2
    3396    3402   -3414   -3432       2    3390    3426   -3405   -3423       2
    3381    3414   -3402   -3420       2    3378    3414   -3396   -3417       2
    3372    3408   -3393   -3411       2    3360    3396   -3378   -3399       2
    3354    3390   -3369   -3387       2    3354    3381   -3366   -3384       2
    3348    3372   -3357   -3375       2    3348    3360   -3351   -3363       2
    3543    3546   -3552   -3561       2    3537    3552   -3546   -3558       2
    3534    3552   -3543   -3555       2    3516    3546   -3537   -3549       2
    3504    3510   -3522   -3540       2    3498    3534   -3513   -3531       2
    3489    3522   -3510   -3528       2    3486    3522   -3504   -3525       2
    3480    3516   -3501   -3519       2    3468    3504   -3486   -3507       2
    3462    3498   -3477   -3495       2    3462    3489   -3474   -3492       2
    3456    3480   -3465   -3483       2    3456    3468   -3459   -3471       2
    3651    3654   -3660   -3669       2    3645    3660   -3654   -3666       2
    3642    3660   -3651   -3663       2    3624    3654   -3645   -3657       2
    3612    3618   -3630   -3648       2    3606    3642   -3621   -3639       2
    3597    3630   -3618   -3636       2    3594    3630   -3612   -3633       2
    3588    3624   -3609   -3627       2    3576    3612   -3594   -3615       2
    3570    3606   -3585   -3603       2    3570    3597   -3582   -3600       2
    3564    3588   -3573   -3591       2    3564    3576   -3567   -3579       2
    3759    3762   -3768   -3777       2    3753    3768   -3762   -3774       2
    3750    3768   -3759   -3771       2    3732    3762   -3753   -3765       2
    3720    3726   -3738   -3756       2    3714    3750   -3729   -3747       2
    3705    3738   -3726   -3744       2    3702    3738   -3720   -3741       2
    3696    3732   -3717   -3735       2    3684    3720   -3702   -3723       2
    3678    3714   -3693   -3711       2    3678    3705   -3690   -3708       2
    3672    3696   -3681   -3699       2    3672    3684   -3675   -3687       2
    3867    3870   -3876   -3885       2    3861    3876   -3870   -3882       2
    3858    3876   -3867   -3879       2    3840    3870   -3861   -3873       2
    3828    3834   -3846   -3864       2    3822    3858   -3837   -3855       2
    3813    3846   -3834   -3852       2    3810    3846   -3828   -3849       2
    3804    3840   -3825   -3843       2    3792    3828   -3810   -3831       2
    3786    3822   -3801   -3819       2    3786    3813   -3798   -3816       2
    3780    3804   -3789   -3807       2    3780    3792   -3783   -3795       2
    3975    3978   -3984   -3993       2    3969    3984   -3978   -3990       2
    3966    3984   -3975   -3987       2    3948    3978   -3969   -3981       2
    3936    3942   -3954   -3972       2    3930    3966   -3945   -3963       2
    3921    3954   -3942   -3960       2    3918    3954   -3936   -3957       2
    3912    3948   -3933   -3951       2    3900    3936   -3918   -3939       2
    3894    3930   -3909   -3927       2    3894    3921   -3906   -3924       2
    3888    3912   -3897   -3915       2    3888    3900   -3891   -3903       2
    4083    4086   -4092   -4101       2    4077    4092   -4086   -4098       2
    4074    4092   -4083   -4095       2    4056    4086   -4077   -4089       2
    4044    4050   -4062   -4080       2    4038    4074   -4053   -4071       2
    4029    4062   -4050   -4068       2    4026    4062   -4044   -4065       2
    4020    4056   -4041   -4059       2    4008    4044   -4026   -4047       2
    4002    4038   -4017   -4035       2    4002    4029   -4014   -4032       2
    3996    4020   -4005   -4023       2    3996    4008   -3999   -4011       2
    4191    4194   -4200   -4209       2    4185    4200   -4194   -4206       2
    4182    4200   -4191   -4203       2    4164    4194   -4185   -4197       2
    4152    4158   -4170   -4188       2    4146    4182   -4161   -4179       2
    4137    4170   -4158   -4176       2    4134    4170   -4152   -4173       2
    4128    4164   -4149   -4167       2    4116    4152   -4134   -4155       2
    4110    4146   -4125   -4143       2    4110    4137   -4122   -4140       2
    4104    4128   -4113   -4131       2    4104    4116   -4107   -4119       2
    4299    4302   -4308   -4317       2    4293    4308   -4302   -4314       2
    4290    4308   -4299   -4311       2    4272    4302   -4293   -4305       2
    4260    4266   -4278   -4296       2    4254    4290   -4269   -4287       2
    4245    4278   -4266   -4284       2    4242    4278   -4260   -4281       2
    4236    4272   -4257   -4275       2    4224    4260   -4242   -4263       2
    4218    4254   -4233   -4251       2    4218    4245   -4230   -4248       2
    4212    4236   -4221   -4239       2    4212    4224   -4215   -4227       2
    4407    4410   -4416   -4425       2    4401    4416   -4410   -4422       2
    4398    4416   -4407   -4419       2    4380    4410   -4401   -4413       2
    4368    4374   -4386   -4404       2    4362    4398   -4377   -4395       2
    4353    4386   -4374   -4392       2    4350    4386   -4368   -4389       2
    4344    4380   -4365   -4383       2    4332    4368   -4350   -4371       2
    4326    4362   -4341   -4359       2    4326    4353   -4338   -4356       2
    4320    4344   -4329   -4347       2    4320    4332   -4323   -4335       2
    4515    4518   -4524   -4533       2    4509    4524   -4518   -4530       2
    4506    4524   -4515   -4527       2    4488    4518   -4509   -4521       2
    4476    4482   -4494   -4512       2    4470    4506   -4485   -4503       2
    4461    4494   -4482   -4500       2    4458    4494   -4476   -4497       2
    4452    4488   -4473   -4491       2    4440    4476   -4458   -4479       2
    4434    4470   -4449   -4467       2    4434    4461   -4446   -4464       2
    4428    4452   -4437   -4455       2    4428    4440   -4431   -4443       2
    4623    4626   -4632   -4641       2    4617    4632   -4626   -4638       2
    4614    4632   -4623   -4635       2    4596    4626   -4617   -4629       2
    4584    4590   -4602   -4620       2    4578    4614   -4593   -4611       2
    4569    4602   -4590   -4608       2    4566    4602   -4584   -4605       2
    4560    4596   -4581   -4599       2    4548    4584   -4566   -4587       2
    4542    4578   -4557   -4575       2    4542    4569   -4554   -4572       2
    4536    4560   -4545   -4563       2    4536    4548   -4539   -4551       2
    4731    4734   -4740   -4749       2    4725    4740   -4734   -4746       2
    4722    4740   -4731   -4743       2    4704    4734   -4725   -4737       2
    4692    4698   -4710   -4728       2    4686    4722   -4701   -4719       2
    4677    4710   -4698   -4716       2    4674    4710   -4692   -4713       2
    4668    4704   -4689   -4707       2    4656    4692   -4674   -4695       2
    4650    4686   -4665   -4683       2    4650    4677   -4662   -4680       2
    4644    4668   -4653   -4671       2    4644    4656   -4647   -4659       2
    4839    4842   -4848   -4857       2    4833    4848   -4842   -4854       2
    4830    4848   -4839   -4851       2    4812    4842   -4833   -4845       2
    4800    4806   -4818   -4836       2    4794    4830   -4809   -4827       2
    4785    4818   -4806   -4824       2    4782    4818   -4800   -4821       2
    4776    4812   -4797   -4815       2    4764    4800   -4782   -4803       2
    4758    4794   -4773   -4791       2    4758    4785   -4770   -4788       2
    4752    4776   -4761   -4779       2    4752    4764   -4755   -4767       2
    4947    4950   -4956   -4965       2    4941    4956   -4950   -4962       2
    4938    4956   -4947   -4959       2    4920    4950   -4941   -4953       2
    4908    4914   -4926   -4944       2    4902    4938   -4917   -4935       2
    4893    4926   -4914   -4932       2    4890    4926   -4908   -4929       2
    4884    4920   -4905   -4923       2    4872    4908   -4890   -4911       2
    4866    4902   -4881   -4899       2    4866    4893   -4878   -4896       2
    4860    4884   -4869   -4887       2    4860    4872   -4863   -4875       2
    5055    5058   -5064   -5073       2    5049    5064   -5058   -5070       2
    5046    5064   -5055   -5067       2    5028    5058   -5049   -5061       2
    5016    5022   -5034   -5052       2    5010    5046   -5025   -5043       2
    5001    5034   -5022   -5040       2    4998    5034   -5016   -5037       2
    4992    5028   -5013   -5031       2    4980    5016   -4998   -5019       2
    4974    5010   -4989   -5007       2    4974    5001   -4986   -5004       2
    4968    4992   -4977   -4995       2    4968    4980   -4971   -4983       2
    5163    5166   -5172   -5181       2    5157    5172   -5166   -5178       2
    5154    5172   -5163   -5175       2    5136    5166   -5157   -5169       2
    5124    5130   -5142   -5160       2    5118    5154   -5133   -5151       2
    5109    5142   -5130   -5148       2    5106    5142   -5124   -5145       2
    5100    5136   -5121   -5139       2    5088    5124   -5106   -5127       2
    5082    5118   -5097   -5115       2    5082    5109   -5094   -5112       2
    5076    5100   -5085   -5103       2    5076    5088   -5079   -5091       2
    5271    5274   -5280   -5289       2    5265    5280   -5274   -5286       2
    5262    5280   -5271   -5283       2    5244    5274   -5265   -5277       2
    5232    5238   -5250   -5268       2    5226    5262   -5241   -5259       2
    5217    5250   -5238   -5256       2    5214    5250   -5232   -5253       2
    5208    5244   -5229   -5247       2    5196    5232   -5214   -5235       2
    5190    5226   -5205   -5223       2    5190    5217   -5202   -5220       2
    5184    5208   -5193   -5211       2    5184    5196   -5187   -5199       2
    5379    5382   -5388   -5397       2    5373    5388   -5382   -5394       2
    5370    5388   -5379   -5391       2    5352    5382   -5373   -5385       2
    5340    5346   -5358   -5376       2    5334    5370   -5349   -5367       2
    5325    5358   -5346   -5364       2    5322    5358   -5340   -5361       2
    5316    5352   -5337   -5355       2    5304    5340   -5322   -5343       2
    5298    5334   -5313   -5331       2    5298    5325   -5310   -5328       2
    5292    5316   -5301   -5319       2    5292    5304   -5295   -5307       2
    5487    5490   -5496   -5505       2    5481    5496   -5490   -5502       2
    5478    5496   -5487   -5499       2    5460    5490   -5481   -5493       2
    5448    5454   -5466   -5484       2    5442    5478   -5457   -5475       2
    5433    5466   -5454   -5472       2    5430    5466   -5448   -5469       2
    5424    5460   -5445   -5463       2    5412    5448   -5430   -5451       2
    5406    5442   -5421   -5439       2    5406    5433   -5418   -5436       2
    5400    5424   -5409   -5427       2    5400    5412   -5403   -5415       2
    5595    5598   -5604   -5613       2    5589    5604   -5598   -5610       2
    5586    5604   -5595   -5607       2    5568    5598   -5589   -5601       2
    5556    5562   -5574   -5592       2    5550    5586   -5565   -5583       2
    5541    5574   -5562   -5580       2    5538    5574   -5556   -5577       2
    5532    5568   -5553   -5571       2    5520    5556   -5538   -5559       2
    5514    5550   -5529   -5547       2    5514    5541   -5526   -5544       2
    5508    5532   -5517   -5535       2    5508    5520   -5511   -5523       2
    5703    5706   -5712   -5721       2    5697    5712   -5706   -5718       2
    5694    5712   -5703   -5715       2    5676    5706   -5697   -5709       2
    5664    5670   -5682   -5700       2    5658    5694   -5673   -5691       2
    5649    5682   -5670   -5688       2    5646    5682   -5664   -5685       2
    5640    5676   -5661   -5679       2    5628    5664   -5646   -5667       2
    5622    5658   -5637   -5655       2    5622    5649   -5634   -5652       2
    5616    5640   -5625   -5643       2    5616    5628   -5619   -5631       2
    5811    5814   -5820   -5829       2    5805    5820   -5814   -5826       2
    5802    5820   -5811   -5823       2    5784    5814   -5805   -5817       2
    5772    5778   -5790   -5808       2    5766    5802   -5781   -5799       2
    5757    5790   -5778   -5796       2    5754    5790   -5772   -5793       2
    5748    5784   -5769   -5787       2    5736    5772   -5754   -5775       2
    5730    5766   -5745   -5763       2    5730    5757   -5742   -5760       2
    5724    5748   -5733   -5751       2    5724    5736   -5727   -5739       2
%FLAG DIHEDRALS_WITHOUT_HYDROGEN                                                
%FORMAT(10I8)                                                                   
      81      60      78      87       1      81      90     -96      87       1
      78      60      81      90       1      78      87     -96      90       1
      60      78      87      96       1      60      81     -90      96       1
      57      78      60      81       1      57      78      87      96       1
      45      24      42      57       1      45      60     -78      57       1
      45      60      78      87       1      45      60      81      90       1
      42      24      45      60       1      42      57     -78      60       1
      42      57      78      87       1      33      12      30      48       1
      33      54     -66      48       1      30      12      33      54       1
      30      48     -66      54       1      24      42      57      78       1
      24      45     -60      78       1      24      45      60      81       1
      21       6      18      33       1      21      42      24      45       1
      21      42      57      78       1      18       6      21      42       1
      18      33      12      30       1      18      33      54      66       1
      12      30      48      66       1      12      33     -54      66       1
       9       0       3      12       1       9       0       6      18       1
       9       0       6      21       1       9      24     -42      21       1
       9      24      42      57       1       9      24      45      60       1
       6       0       3      12       1       6       0       9      24       1
       6      18     -33      12       1       6      18      33      54       1
       6      21     -42      24       1       6      21      42      57       1
       3       0       6      18       1       3       0       6      21       1
       3       0       9      24       1       3      12      30      48       1
       3      12     -33      18       1       3      12      33      54       1
       0       3      12      30       1       0       3      12      33       1
       0       6     -18      33       1       0       6      21      42       1
       0       9     -24      42       1       0       9      24      45       1
     189     168     186     195       1     189     198    -204     195       1
     186     168     189     198       1     186     195    -204     198       1
     168     186     195     204       1     168     189    -198     204       1
     165     186     168     189       1     165     186     195     204       1
     153     132     150     165       1     153     168    -186     165       1
     153     168     186     195       1     153     168     189     198       1
     150     132     153     168       1     150     165    -186     168       1
     150     165     186     195       1     141     120     138     156       1
     141     162    -174     156       1     138     120     141     162       1
     138     156    -174     162       1     132     150     165     186       1
     132     153    -168     186       1     132     153     168     189       1
     129     114     126     141       1     129     150     132     153       1
     129     150     165     186       1     126     114     129     150       1
     126     141     120     138       1     126     141     162     174       1
     120     138     156     174       1     120     141    -162     174       1
     117     108     111     120       1     117     108     114     126       1
     117     108     114     129       1     117     132    -150     129       1
     117     132     150     165       1     117     132     153     168       1
     114     108     111     120       1     114     108     117     132       1
     114     126    -141     120       1     114     126     141     162       1
     114     129    -150     132       1     114     129     150     165       1
     111     108     114     126       1     111     108     114     129       1
     111     108     117     132       1     111     120     138     156       1
     111     120    -141     126       1     111     120     141     162       1
     108     111     120     138       1     108     111     120     141       1
     108     114    -126     141       1     108     114     129     150       1
     108     117    -132     150       1     108     117     132     153       1
     297     276     294     303       1     297     306    -312     303       1
     294     276     297     306       1     294     303    -312     306       1
     276     294     303     312       1     276     297    -306     312       1
     273     294     276     297       1     273     294     303     312       1
     261     240     258     273       1     261     276    -294     273       1
     261     276     294     303       1     261     276     297     306       1
     258     240     261     276       1     258     273    -294     276       1
     258     273     294     303       1     249     228     246     264       1
     249     270    -282     264       1     246     228     249     270       1
     246     264    -282     270       1     240     258     273     294       1
     240     261    -276     294       1     240     261     276     297       1
     237     222     234     249       1     237     258     240     261       1
     237     258     273     294       1     234     222     237     258       1
     234     249     228     246       1     234     249     270     282       1
     228     246     264     282       1     228     249    -270     282       1
     225     216     219     228       1     225     216     222     234       1
     225     216     222     237       1     225     240    -258     237       1
     225     240     258     273       1     225     240     261     276       1
     222     216     219     228       1     222     216     225     240       1
     222     234    -249     228       1     222     234     249     270       1
     222     237    -258     240       1     222     237     258     273       1
     219     216     222     234       1     219     216     222     237       1
     219     216     225     240       1     219     228     246     264       1
     219     228    -249     234       1     219     228     249     270       1
     216     219     228     246       1     216     219     228     249       1
     216     222    -234     249       1     216     222     237     258       1
     216     225    -240     258       1     216     225     240     261       1
     405     384     402     411       1     405     414    -420     411       1
     402     384     405     414       1     402     411    -420     414       1
     384     402     411     420       1     384     405    -414     420       1
     381     402     384     405       1     381     402     411     420       1
     369     348     366     381       1     369     384    -402     381       1
     369     384     402     411       1     369     384     405     414       1
     366     348     369     384       1     366     381    -402     384       1
     366     381     402     411       1     357     336     354     372       1
     357     378    -390     372       1     354     336     357     378       1
     354     372    -390     378       1     348     366     381     402       1
     348     369    -384     402       1     348     369     384     405       1
     345     330     342     357       1     345     366     348     369       1
     345     366     381     402       1     342     330     345     366       1
     342     357     336     354       1     342     357     378     390       1
     336     354     372     390       1     336     357    -378     390       1
     333     324     327     336       1     333     324     330     342       1
     333     324     330     345       1     333     348    -366     345       1
     333     348     366     381       1     333     348     369     384       1
     330     324     327     336       1     330     324     333     348       1
     330     342    -357     336       1     330     342     357     378       1
     330     345    -366     348       1     330     345     366     381       1
     327     324     330     342       1     327     324     330     345       1
     327     324     333     348       1     327     336     354     372       1
     327     336    -357     342       1     327     336     357     378       1
     324     327     336     354       1     324     327     336     357       1
     324     330    -342     357       1     324     330     345     366       1
     324     333    -348     366       1     324     333     348     369       1
     513     492     510     519       1     513     522    -528     519       1
     510     492     513     522       1     510     519    -528     522       1
     492     510     519     528       1     492     513    -522     528       1
     489     510     492     513       1     489     510     519     528       1
     477     456     474     489       1     477     492    -510     489       1
     477     492     510     519       1     477     492     513     522       1
     474     456     477     492       1     474     489    -510     492       1
     474     489     510     519       1     465     444     462     480       1
     465     486    -498     480       1     462     444     465     486       1
     462     480    -498     486       1     456     474     489     510       1
     456     477    -492     510       1     456     477     492     513       1
     453     438     450     465       1     453     474     456     477       1
     453     474     489     510       1     450     438     453     474       1
     450     465     444     462       1     450     465     486     498       1
     444     462     480     498       1     444     465    -486     498       1
     441     432     435     444       1     441     432     438     450       1
     441     432     438     453       1     441     456    -474     453       1
     441     456     474     489       1     441     456     477     492       1
     438     432     435     444       1     438     432     441     456       1
     438     450    -465     444       1     438     450     465     486       1
     438     453    -474     456       1     438     453     474     489       1
     435     432     438     450       1     435     432     438     453       1
     435     432     441     456       1     435     444     462     480       1
     435     444    -465     450       1     435     444     465     486       1
     432     435     444     462       1     432     435     444     465       1
     432     438    -450     465       1     432     438     453     474       1
     432     441    -456     474       1     432     441     456     477       1
     621     600     618     627       1     621     630    -636     627       1
     618     600     621     630       1     618     627    -636     630       1
     600     618     627     636       1     600     621    -630     636       1
     597     618     600     621       1     597     618     627     636       1
     585     564     582     597       1     585     600    -618     597       1
     585     600     618     627       1     585     600     621     630       1
     582     564     585     600       1     582     597    -618     600       1
     582     597     618     627       1     573     552     570     588       1
     573     594    -606     588       1     570     552     573     594       1
     570     588    -606     594       1     564     582     597     618       1
     564     585    -600     618       1     564     585     600     621       1
     561     546     558     573       1     561     582     564     585       1
     561     582     597     618       1     558     546     561     582       1
     558     573     552     570       1     558     573     594     606       1
     552     570     588     606       1     552     573    -594     606       1
     549     540     543     552       1     549     540     546     558       1
     549     540     546     561       1     549     564    -582     561       1
     549     564     582     597       1     549     564     585     600       1
     546     540     543     552       1     546     540     549     564       1
     546     558    -573     552       1     546     558     573     594       1
     546     561    -582     564       1     546     561     582     597       1
     543     540     546     558       1     543     540     546     561       1
     543     540     549     564       1     543     552     570     588       1
     543     552    -573     558       1     543     552     573     594       1
     540     543     552     570       1     540     543     552     573       1
     540     546    -558     573       1     540     546     561     582       1
     540     549    -564     582       1     540     549     564     585       1
     729     708     726     735       1     729     738    -744     735       1
     726     708     729     738       1     726     735    -744     738       1
     708     726     735     744       1     708     729    -738     744       1
     705     726     708     729       1     705     726     735     744       1
     693     672     690     705       1     693     708    -726     705       1
     693     708     726     735       1     693     708     729     738       1
     690     672     693     708       1     690     705    -726     708       1
     690     705     726     735       1     681     660     678     696       1
     681     702    -714     696       1     678     660     681     702       1
     678     696    -714     702       1     672     690     705     726       1
     672     693    -708     726       1     672     693     708     729       1
     669     654     666     681       1     669     690     672     693       1
     669     690     705     726       1     666     654     669     690       1
     666     681     660     678       1     666     681     702     714       1
     660     678     696     714       1     660     681    -702     714       1
     657     648     651     660       1     657     648     654     666       1
     657     648     654     669       1     657     672    -690     669       1
     657     672     690     705       1     657     672     693     708       1
     654     648     651     660       1     654     648     657     672       1
     654     666    -681     660       1     654     666     681     702       1
     654     669    -690     672       1     654     669     690     705       1
     651     648     654     666       1     651     648     654     669       1
     651     648     657     672       1     651     660     678     696       1
     651     660    -681     666       1     651     660     681     702       1
     648     651     660     678       1     648     651     660     681       1
     648     654    -666     681       1     648     654     669     690       1
     648     657    -672     690       1     648     657     672     693       1
     837     816     834     843       1     837     846    -852     843       1
     834     816     837     846       1     834     843    -852     846       1
     816     834     843     852       1     816     837    -846     852       1
     813     834     816     837       1     813     834     843     852       1
     801     780     798     813       1     801     816    -834     813       1
     801     816     834     843       1     801     816     837     846       1
     798     780     801     816       1     798     813    -834     816       1
     798     813     834     843       1     789     768     786     804       1
     789     810    -822     804       1     786     768     789     810       1
     786     804    -822     810       1     780     798     813     834       1
     780     801    -816     834       1     780     801     816     837       1
     777     762     774     789       1     777     798     780     801       1
     777     798     813     834       1     774     762     777     798       1
     774     789     768     786       1     774     789     810     822       1
     768     786     804     822       1     768     789    -810     822       1
     765     756     759     768       1     765     756     762     774       1
     765     756     762     777       1     765     780    -798     777       1
     765     780     798     813       1     765     780     801     816       1
     762     756     759     768       1     762     756     765     780       1
     762     774    -789     768       1     762     774     789     810       1
     762     777    -798     780       1     762     777     798     813       1
     759     756     762     774       1     759     756     762     777       1
     759     756     765     780       1     759     768     786     804       1
     759     768    -789     774       1     759     768     789     810       1
     756     759     768     786       1     756     759     768     789       1
     756     762    -774     789       1     756     762     777     798       1
     756     765    -780     798       1     756     765     780     801       1
     945     924     942     951       1     945     954    -960     951       1
     942     924     945     954       1     942     951    -960     954       1
     924     942     951     960       1     924     945    -954     960       1
     921     942     924     945       1     921     942     951     960       1
     909     888     906     921       1     909     924    -942     921       1
     909     924     942     951       1     909     924     945     954       1
     906     888     909     924       1     906     921    -942     924       1
     906     921     942     951       1     897     876     894     912       1
     897     918    -930     912       1     894     876     897     918       1
     894     912    -930     918       1     888     906     921     942       1
     888     909    -924     942       1     888     909     924     945       1
     885     870     882     897       1     885     906     888     909       1
     885     906     921     942       1     882     870     885     906       1
     882     897     876     894       1     882     897     918     930       1
     876     894     912     930       1     876     897    -918     930       1
     873     864     867     876       1     873     864     870     882       1
     873     864     870     885       1     873     888    -906     885       1
     873     888     906     921       1     873     888     909     924       1
     870     864     867     876       1     870     864     873     888       1
     870     882    -897     876       1     870     882     897     918       1
     870     885    -906     888       1     870     885     906     921       1
     867     864     870     882       1     867     864     870     885       1
     867     864     873     888       1     867     876     894     912       1
     867     876    -897     882       1     867     876     897     918       1
     864     867     876     894       1     864     867     876     897       1
     864     870    -882     897       1     864     870     885     906       1
     864     873    -888     906       1     864     873     888     909       1
    1053    1032    1050    1059       1    1053    1062   -1068    1059       1
    1050    1032    1053    1062       1    1050    1059   -1068    1062       1
    1032    1050    1059    1068       1    1032    1053   -1062    1068       1
    1029    1050    1032    1053       1    1029    1050    1059    1068       1
    1017     996    1014    1029       1    1017    1032   -1050    1029       1
    1017    1032    1050    1059       1    1017    1032    1053    1062       1
    1014     996    1017    1032       1    1014    1029   -1050    1032       1
    1014    1029    1050    1059       1    1005     984    1002    1020       1
    1005    1026   -1038    1020       1    1002     984    1005    1026       1
    1002    1020   -1038    1026       1     996    1014    1029    1050       1
     996    1017   -1032    1050       1     996    1017    1032    1053       1
     993     978     990    1005       1     993    1014     996    1017       1
     993    1014    1029    1050       1     990     978     993    1014       1
     990    1005     984    1002       1     990    1005    1026    1038       1
     984    1002    1020    1038       1     984    1005   -1026    1038       1
     981     972     975     984       1     981     972     978     990       1
     981     972     978     993       1     981     996   -1014     993       1
     981     996    1014    1029       1     981     996    1017    1032       1
     978     972     975     984       1     978     972     981     996       1
     978     990   -1005     984       1     978     990    1005    1026       1
     978     993   -1014     996       1     978     993    1014    1029       1
     975     972     978     990       1     975     972     978     993       1
     975     972     981     996       1     975     984    1002    1020       1
     975     984   -1005     990       1     975     984    1005    1026       1
     972     975     984    1002       1     972     975     984    1005       1
     972     978    -990    1005       1     972     978     993    1014       1
     972     981    -996    1014       1     972     981     996    1017       1
    1161    1140    1158    1167       1    1161    1170   -1176    1167       1
    1158    1140    1161    1170       1    1158    1167   -1176    1170       1
    1140    1158    1167    1176       1    1140    1161   -1170    1176       1
    1137    1158    1140    1161       1    1137    1158    1167    1176       1
    1125    1104    1122    1137       1    1125    1140   -1158    1137       1
    1125    1140    1158    1167       1    1125    1140    1161    1170       1
    1122    1104    1125    1140       1    1122    1137   -1158    1140       1
    1122    1137    1158    1167       1    1113    1092    1110    1128       1
    1113    1134   -1146    1128       1    1110    1092    1113    1134       1
    1110    1128   -1146    1134       1    1104    1122    1137    1158       1
    1104    1125   -1140    1158       1    1104    1125    1140    1161       1
    1101    1086    1098    1113       1    1101    1122    1104    1125       1
    1101    1122    1137    1158       1    1098    1086    1101    1122       1
    1098    1113    1092    1110       1    1098    1113    1134    1146       1
    1092    1110    1128    1146       1    1092    1113   -1134    1146       1
    1089    1080    1083    1092       1    1089    1080    1086    1098       1
    1089    1080    1086    1101       1    1089    1104   -1122    1101       1
    1089    1104    1122    1137       1    1089    1104    1125    1140       1
    1086    1080    1083    1092       1    1086    1080    1089    1104       1
    1086    1098   -1113    1092       1    1086    1098    1113    1134       1
    1086    1101   -1122    1104       1    1086    1101    1122    1137       1
    1083    1080    1086    1098       1    1083    1080    1086    1101       1
    1083    1080    1089    1104       1    1083    1092    1110    1128       1
    1083    1092   -1113    1098       1    1083    1092    1113    1134       1
    1080    1083    1092    1110       1    1080    1083    1092    1113       1
    1080    1086   -1098    1113       1    1080    1086    1101    1122       1
    1080    1089   -1104    1122       1    1080    1089    1104    1125       1
    1269    1248    1266    1275       1    1269    1278   -1284    1275       1
    1266    1248    1269    1278       1    1266    1275   -1284    1278       1
    1248    1266    1275    1284       1    1248    1269   -1278    1284       1
    1245    1266    1248    1269       1    1245    1266    1275    1284       1
    1233    1212    1230    1245       1    1233    1248   -1266    1245       1
    1233    1248    1266    1275       1    1233    1248    1269    1278       1
    1230    1212    1233    1248       1    1230    1245   -1266    1248       1
    1230    1245    1266    1275       1    1221    1200    1218    1236       1
    1221    1242   -1254    1236       1    1218    1200    1221    1242       1
    1218    1236   -1254    1242       1    1212    1230    1245    1266       1
    1212    1233   -1248    1266       1    1212    1233    1248    1269       1
    1209    1194    1206    1221       1    1209    1230    1212    1233       1
    1209    1230    1245    1266       1    1206    1194    1209    1230       1
    1206    1221    1200    1218       1    1206    1221    1242    1254       1
    1200    1218    1236    1254       1    1200    1221   -1242    1254       1
    1197    1188    1191    1200       1    1197    1188    1194    1206       1
    1197    1188    1194    1209       1    1197    1212   -1230    1209       1
    1197    1212    1230    1245       1    1197    1212    1233    1248       1
    1194    1188    1191    1200       1    1194    1188    1197    1212       1
    1194    1206   -1221    1200       1    1194    1206    1221    1242       1
    1194    1209   -1230    1212       1    1194    1209    1230    1245       1
    1191    1188    1194    1206       1    1191    1188    1194    1209       1
    1191    1188    1197    1212       1    1191    1200    1218    1236       1
    1191    1200   -1221    1206       1    1191    1200    1221    1242       1
    1188    1191    1200    1218       1    1188    1191    1200    1221       1
    1188    1194   -1206    1221       1    1188    1194    1209    1230       1
    1188    1197   -1212    1230       1    1188    1197    1212    1233       1
    1377    1356    1374    1383       1    1377    1386   -1392    1383       1
    1374    1356    1377    1386       1    1374    1383   -1392    1386       1
    1356    1374    1383    1392       1    1356    1377   -1386    1392       1
    1353    1374    1356    1377       1    1353    1374    1383    1392       1
    1341    1320    1338    1353       1    1341    1356   -1374    1353       1
    1341    1356    1374    1383       1    1341    1356    1377    1386       1
    1338    1320    1341    1356       1    1338    1353   -1374    1356       1
    1338    1353    1374    1383       1    1329    1308    1326    1344       1
    1329    1350   -1362    1344       1    1326    1308    1329    1350       1
    1326    1344   -1362    1350       1    1320    1338    1353    1374       1
    1320    1341   -1356    1374       1    1320    1341    1356    1377       1
    1317    1302    1314    1329       1    1317    1338    1320    1341       1
    1317    1338    1353    1374       1    1314    1302    1317    1338       1
    1314    1329    1308    1326       1    1314    1329    1350    1362       1
    1308    1326    1344    1362       1    1308    1329   -1350    1362       1
    1305    1296    1299    1308       1    1305    1296    1302    1314       1
    1305    1296    1302    1317       1    1305    1320   -1338    1317       1
    1305    1320    1338    1353       1    1305    1320    1341    1356       1
    1302    1296    1299    1308       1    1302    1296    1305    1320       1
    1302    1314   -1329    1308       1    1302    1314    1329    1350       1
    1302    1317   -1338    1320       1    1302    1317    1338    1353       1
    1299    1296    1302    1314       1    1299    1296    1302    1317       1
    1299    1296    1305    1320       1    1299    1308    1326    1344       1
    1299    1308   -1329    1314       1    1299    1308    1329    1350       1
    1296    1299    1308    1326       1    1296    1299    1308    1329       1
    1296    1302   -1314    1329       1    1296    1302    1317    1338       1
    1296    1305   -1320    1338       1    1296    1305    1320    1341       1
    1485    1464    1482    1491       1    1485    1494   -1500    1491       1
    1482    1464    1485    1494       1    1482    1491   -1500    1494       1
    1464    1482    1491    1500       1    1464    1485   -1494    1500       1
    1461    1482    1464    1485       1    1461    1482    1491    1500       1
    1449    1428    1446    1461       1    1449    1464   -1482    1461       1
    1449    1464    1482    1491       1    1449    1464    1485    1494       1
    1446    1428    1449    1464       1    1446    1461   -1482    1464       1
    1446    1461    1482    1491       1    1437    1416    1434    1452       1
    1437    1458   -1470    1452       1    1434    1416    1437    1458       1
    1434    1452   -1470    1458       1    1428    1446    1461    1482       1
    1428    1449   -1464    1482       1    1428    1449    1464    1485       1
    1425    1410    1422    1437       1    1425    1446    1428    1449       1
    1425    1446    1461    1482       1    1422    1410    1425    1446       1
    1422    1437    1416    1434       1    1422    1437    1458    1470       1
    1416    1434    1452    1470       1    1416    1437   -1458    1470       1
    1413    1404    1407    1416       1    1413    1404    1410    1422       1
    1413    1404    1410    1425       1    1413    1428   -1446    1425       1
    1413    1428    1446    1461       1    1413    1428    1449    1464       1
    1410    1404    1407    1416       1    1410    1404    1413    1428       1
    1410    1422   -1437    1416       1    1410    1422    1437    1458       1
    1410    1425   -1446    1428       1    1410    1425    1446    1461       1
    1407    1404    1410    1422       1    1407    1404    1410    1425       1
    1407    1404    1413    1428       1    1407    1416    1434    1452       1
    1407    1416   -1437    1422       1    1407    1416    1437    1458       1
    1404    1407    1416    1434       1    1404    1407    1416    1437       1
    1404    1410   -1422    1437       1    1404    1410    1425    1446       1
    1404    1413   -1428    1446       1    1404    1413    1428    1449       1
    1593    1572    1590    1599       1    1593    1602   -1608    1599       1
    1590    1572    1593    1602       1    1590    1599   -1608    1602       1
    1572    1590    1599    1608       1    1572    1593   -1602    1608       1
    1569    1590    1572    1593       1    1569    1590    1599    1608       1
    1557    1536    1554    1569       1    1557    1572   -1590    1569       1
    1557    1572    1590    1599       1    1557    1572    1593    1602       1
    1554    1536    1557    1572       1    1554    1569   -1590    1572       1
    1554    1569    1590    1599       1    1545    1524    1542    1560       1
    1545    1566   -1578    1560       1    1542    1524    1545    1566       1
    1542    1560   -1578    1566       1    1536    1554    1569    1590       1
    1536    1557   -1572    1590       1    1536    1557    1572    1593       1
    1533    1518    1530    1545       1    1533    1554    1536    1557       1
    1533    1554    1569    1590       1    1530    1518    1533    1554       1
    1530    1545    1524    1542       1    1530    1545    1566    1578       1
    1524    1542    1560    1578       1    1524    1545   -1566    1578       1
    1521    1512    1515    1524       1    1521    1512    1518    1530       1
    1521    1512    1518    1533       1    1521    1536   -1554    1533       1
    1521    1536    1554    1569       1    1521    1536    1557    1572       1
    1518    1512    1515    1524       1    1518    1512    1521    1536       1
    1518    1530   -1545    1524       1    1518    1530    1545    1566       1
    1518    1533   -1554    1536       1    1518    1533    1554    1569       1
    1515    1512    1518    1530       1    1515    1512    1518    1533       1
    1515    1512    1521    1536       1    1515    1524    1542    1560       1
    1515    1524   -1545    1530       1    1515    1524    1545    1566       1
    1512    1515    1524    1542       1    1512    1515    1524    1545       1
    1512    1518   -1530    1545       1    1512    1518    1533    1554       1
    1512    1521   -1536    1554       1    1512    1521    1536    1557       1
    1701    1680    1698    1707       1    1701    1710   -1716    1707       1
    1698    1680    1701    1710       1    1698    1707   -1716    1710       1
    1680    1698    1707    1716       1    1680    1701   -1710    1716       1
    1677    1698    1680    1701       1    1677    1698    1707    1716       1
    1665    1644    1662    1677       1    1665    1680   -1698    1677       1
    1665    1680    1698    1707       1    1665    1680    1701    1710       1
    1662    1644    1665    1680       1    1662    1677   -1698    1680       1
    1662    1677    1698    1707       1    1653    1632    1650    1668       1
    1653    1674   -1686    1668       1    1650    1632    1653    1674       1
    1650    1668   -1686    1674       1    1644    1662    1677    1698       1
    1644    1665   -1680    1698       1    1644    1665    1680    1701       1
    1641    1626    1638    1653       1    1641    1662    1644    1665       1
    1641    1662    1677    1698       1    1638    1626    1641    1662       1
    1638    1653    1632    1650       1    1638    1653    1674    1686       1
    1632    1650    1668    1686       1    1632    1653   -1674    1686       1
    1629    1620    1623    1632       1    1629    1620    1626    1638       1
    1629    1620    1626    1641       1    1629    1644   -1662    1641       1
    1629    1644    1662    1677       1    1629    1644    1665    1680       1
    1626    1620    1623    1632       1    1626    1620    1629    1644       1
    1626    1638   -1653    1632       1    1626    1638    1653    1674       1
    1626    1641   -1662    1644       1    1626    1641    1662    1677       1
    1623    1620    1626    1638       1    1623    1620    1626    1641       1
    1623    1620    1629    1644       1    1623    1632    1650    1668       1
    1623    1632   -1653    1638       1    1623    1632    1653    1674       1
    1620    1623    1632    1650       1    1620    1623    1632    1653       1
    1620    1626   -1638    1653       1    1620    1626    1641    1662       1
    1620    1629   -1644    1662       1    1620    1629    1644    1665       1
    1809    1788    1806    1815       1    1809    1818   -1824    1815       1
    1806    1788    1809    1818       1    1806    1815   -1824    1818       1
    1788    1806    1815    1824       1    1788    1809   -1818    1824       1
    1785    1806    1788    1809       1    1785    1806    1815    1824       1
    1773    1752    1770    1785       1    1773    1788   -1806    1785       1
    1773    1788    1806    1815       1    1773    1788    1809    1818       1
    1770    1752    1773    1788       1    1770    1785   -1806    1788       1
    1770    1785    1806    1815       1    1761    1740    1758    1776       1
    1761    1782   -1794    1776       1    1758    1740    1761    1782       1
    1758    1776   -1794    1782       1    1752    1770    1785    1806       1
    1752    1773   -1788    1806       1    1752    1773    1788    1809       1
    1749    1734    1746    1761       1    1749    1770    1752    1773       1
    1749    1770    1785    1806       1    1746    1734    1749    1770       1
    1746    1761    1740    1758       1    1746    1761    1782    1794       1
    1740    1758    1776    1794       1    1740    1761   -1782    1794       1
    1737    1728    1731    1740       1    1737    1728    1734    1746       1
    1737    1728    1734    1749       1    1737    1752   -1770    1749       1
    1737    1752    1770    1785       1    1737    1752    1773    1788       1
    1734    1728    1731    1740       1    1734    1728    1737    1752       1
    1734    1746   -1761    1740       1    1734    1746    1761    1782       1
    1734    1749   -1770    1752       1    1734    1749    1770    1785       1
    1731    1728    1734    1746       1    1731    1728    1734    1749       1
    1731    1728    1737    1752       1    1731    1740    1758    1776       1
    1731    1740   -1761    1746       1    1731    1740    1761    1782       1
    1728    1731    1740    1758       1    1728    1731    1740    1761       1
    1728    1734   -1746    1761       1    1728    1734    1749    1770       1
    1728    1737   -1752    1770       1    1728    1737    1752    1773       1
    1917    1896    1914    1923       1    1917    1926   -1932    1923       1
    1914    1896    1917    1926       1    1914    1923   -1932    1926       1
    1896    1914    1923    1932       1    1896    1917   -1926    1932       1
    1893    1914    1896    1917       1    1893    1914    1923    1932       1
    1881    1860    1878    1893       1    1881    1896   -1914    1893       1
    1881    1896    1914    1923       1    1881    1896    1917    1926       1
    1878    1860    1881    1896       1    1878    1893   -1914    1896       1
    1878    1893    1914    1923       1    1869    1848    1866    1884       1
    1869    1890   -1902    1884       1    1866    1848    1869    1890       1
    1866    1884   -1902    1890       1    1860    1878    1893    1914       1
    1860    1881   -1896    1914       1    1860    1881    1896    1917       1
    1857    1842    1854    1869       1    1857    1878    1860    1881       1
    1857    1878    1893    1914       1    1854    1842    1857    1878       1
    1854    1869    1848    1866       1    1854    1869    1890    1902       1
    1848    1866    1884    1902       1    1848    1869   -1890    1902       1
    1845    1836    1839    1848       1    1845    1836    1842    1854       1
    1845    1836    1842    1857       1    1845    1860   -1878    1857       1
    1845    1860    1878    1893       1    1845    1860    1881    1896       1
    1842    1836    1839    1848       1    1842    1836    1845    1860       1
    1842    1854   -1869    1848       1    1842    1854    1869    1890       1
    1842    1857   -1878    1860       1    1842    1857    1878    1893       1
    1839    1836    1842    1854       1    1839    1836    1842    1857       1
    1839    1836    1845    1860       1    1839    1848    1866    1884       1
    1839    1848   -1869    1854       1    1839    1848    1869    1890       1
    1836    1839    1848    1866       1    1836    1839    1848    1869       1
    1836    1842   -1854    1869       1    1836    1842    1857    1878       1
    1836    1845   -1860    1878       1    1836    1845    1860    1881       1
    2025    2004    2022    2031       1    2025    2034   -2040    2031       1
    2022    2004    2025    2034       1    2022    2031   -2040    2034       1
    2004    2022    2031    2040       1    2004    2025   -2034    2040       1
    2001    2022    2004    2025       1    2001    2022    2031    2040       1
    1989    1968    1986    2001       1    1989    2004   -2022    2001       1
    1989    2004    2022    2031       1    1989    2004    2025    2034       1
    1986    1968    1989    2004       1    1986    2001   -2022    2004       1
    1986    2001    2022    2031       1    1977    1956    1974    1992       1
    1977    1998   -2010    1992       1    1974    1956    1977    1998       1
    1974    1992   -2010    1998       1    1968    1986    2001    2022       1
    1968    1989   -2004    2022       1    1968    1989    2004    2025       1
    1965    1950    1962    1977       1    1965    1986    1968    1989       1
    1965    1986    2001    2022       1    1962    1950    1965    1986       1
    1962    1977    1956    1974       1    1962    1977    1998    2010       1
    1956    1974    1992    2010       1    1956    1977   -1998    2010       1
    1953    1944    1947    1956       1    1953    1944    1950    1962       1
    1953    1944    1950    1965       1    1953    1968   -1986    1965       1
    1953    1968    1986    2001       1    1953    1968    1989    2004       1
    1950    1944    1947    1956       1    1950    1944    1953    1968       1
    1950    1962   -1977    1956       1    1950    1962    1977    1998       1
    1950    1965   -1986    1968       1    1950    1965    1986    2001       1
    1947    1944    1950    1962       1    1947    1944    1950    1965       1
    1947    1944    1953    1968       1    1947    1956    1974    1992       1
    1947    1956   -1977    1962       1    1947    1956    1977    1998       1
    1944    1947    1956    1974       1    1944    1947    1956    1977       1
    1944    1950   -1962    1977       1    1944    1950    1965    1986       1
    1944    1953   -1968    1986       1    1944    1953    1968    1989       1
    2133    2112    2130    2139       1    2133    2142   -2148    2139       1
    2130    2112    2133    2142       1    2130    2139   -2148    2142       1
    2112    2130    2139    2148       1    2112    2133   -2142    2148       1
    2109    2130    2112    2133       1    2109    2130    2139    2148       1
    2097    2076    2094    2109       1    2097    2112   -2130    2109       1
    2097    2112    2130    2139       1    2097    2112    2133    2142       1
    2094    2076    2097    2112       1    2094    2109   -2130    2112       1
    2094    2109    2130    2139       1    2085    2064    2082    2100       1
    2085    2106   -2118    2100       1    2082    2064    2085    2106       1
    2082    2100   -2118    2106       1    2076    2094    2109    2130       1
    2076    2097   -2112    2130       1    2076    2097    2112    2133       1
    2073    2058    2070    2085       1    2073    2094    2076    2097       1
    2073    2094    2109    2130       1    2070    2058    2073    2094       1
    2070    2085    2064    2082       1    2070    2085    2106    2118       1
    2064    2082    2100    2118       1    2064    2085   -2106    2118       1
    2061    2052    2055    2064       1    2061    2052    2058    2070       1
    2061    2052    2058    2073       1    2061    2076   -2094    2073       1
    2061    2076    2094    2109       1    2061    2076    2097    2112       1
    2058    2052    2055    2064       1    2058    2052    2061    2076       1
    2058    2070   -2085    2064       1    2058    2070    2085    2106       1
    2058    2073   -2094    2076       1    2058    2073    2094    2109       1
    2055    2052    2058    2070       1    2055    2052    2058    2073       1
    2055    2052    2061    2076       1    2055    2064    2082    2100       1
    2055    2064   -2085    2070       1    2055    2064    2085    2106       1
    2052    2055    2064    2082       1    2052    2055    2064    2085       1
    2052    2058   -2070    2085       1    2052    2058    2073    2094       1
    2052    2061   -2076    2094       1    2052    2061    2076    2097       1
    2241    2220    2238    2247       1    2241    2250   -2256    2247       1
    2238    2220    2241    2250       1    2238    2247   -2256    2250       1
    2220    2238    2247    2256       1    2220    2241   -2250    2256       1
    2217    2238    2220    2241       1    2217    2238    2247    2256       1
    2205    2184    2202    2217       1    2205    2220   -2238    2217       1
    2205    2220    2238    2247       1    2205    2220    2241    2250       1
    2202    2184    2205    2220       1    2202    2217   -2238    2220       1
    2202    2217    2238    2247       1    2193    2172    2190    2208       1
    2193    2214   -2226    2208       1    2190    2172    2193    2214       1
    2190    2208   -2226    2214       1    2184    2202    2217    2238       1
    2184    2205   -2220    2238       1    2184    2205    2220    2241       1
    2181    2166    2178    2193       1    2181    2202    2184    2205       1
    2181    2202    2217    2238       1    2178    2166    2181    2202       1
    2178    2193    2172    2190       1    2178    2193    2214    2226       1
    2172    2190    2208    2226       1    2172    2193   -2214    2226       1
    2169    2160    2163    2172       1    2169    2160    2166    2178       1
    2169    2160    2166    2181       1    2169    2184   -2202    2181       1
    2169    2184    2202    2217       1    2169    2184    2205    2220       1
    2166    2160    2163    2172       1    2166    2160    2169    2184       1
    2166    2178   -2193    2172       1    2166    2178    2193    2214       1
    2166    2181   -2202    2184       1    2166    2181    2202    2217       1
    2163    2160    2166    2178       1    2163    2160    2166    2181       1
    2163    2160    2169    2184       1    2163    2172    2190    2208       1
    2163    2172   -2193    2178       1    2163    2172    2193    2214       1
    2160    2163    2172    2190       1    2160    2163    2172    2193       1
    2160    2166   -2178    2193       1    2160    2166    2181    2202       1
    2160    2169   -2184    2202       1    2160    2169    2184    2205       1
    2349    2328    2346    2355       1    2349    2358   -2364    2355       1
    2346    2328    2349    2358       1    2346    2355   -2364    2358       1
    2328    2346    2355    2364       1    2328    2349   -2358    2364       1
    2325    2346    2328    2349       1    2325    2346    2355    2364       1
    2313    2292    2310    2325       1    2313    2328   -2346    2325       1
    2313    2328    2346    2355       1    2313    2328    2349    2358       1
    2310    2292    2313    2328       1    2310    2325   -2346    2328       1
    2310    2325    2346    2355       1    2301    2280    2298    2316       1
    2301    2322   -2334    2316       1    2298    2280    2301    2322       1
    2298    2316   -2334    2322       1    2292    2310    2325    2346       1
    2292    2313   -2328    2346       1    2292    2313    2328    2349       1
    2289    2274    2286    2301       1    2289    2310    2292    2313       1
    2289    2310    2325    2346       1    2286    2274    2289    2310       1
    2286    2301    2280    2298       1    2286    2301    2322    2334       1
    2280    2298    2316    2334       1    2280    2301   -2322    2334       1
    2277    2268    2271    2280       1    2277    2268    2274    2286       1
    2277    2268    2274    2289       1    2277    2292   -2310    2289       1
    2277    2292    2310    2325       1    2277    2292    2313    2328       1
    2274    2268    2271    2280       1    2274    2268    2277    2292       1
    2274    2286   -2301    2280       1    2274    2286    2301    2322       1
    2274    2289   -2310    2292       1    2274    2289    2310    2325       1
    2271    2268    2274    2286       1    2271    2268    2274    2289       1
    2271    2268    2277    2292       1    2271    2280    2298    2316       1
    2271    2280   -2301    2286       1    2271    2280    2301    2322       1
    2268    2271    2280    2298       1    2268    2271    2280    2301       1
    2268    2274   -2286    2301       1    2268    2274    2289    2310       1
    2268    2277   -2292    2310       1    2268    2277    2292    2313       1
    2457    2436    2454    2463       1    2457    2466   -2472    2463       1
    2454    2436    2457    2466       1    2454    2463   -2472    2466       1
    2436    2454    2463    2472       1    2436    2457   -2466    2472       1
    2433    2454    2436    2457       1    2433    2454    2463    2472       1
    2421    2400    2418    2433       1    2421    2436   -2454    2433       1
    2421    2436    2454    2463       1    2421    2436    2457    2466       1
    2418    2400    2421    2436       1    2418    2433   -2454    2436       1
    2418    2433    2454    2463       1    2409    2388    2406    2424       1
    2409    2430   -2442    2424       1    2406    2388    2409    2430       1
    2406    2424   -2442    2430       1    2400    2418    2433    2454       1
    2400    2421   -2436    2454       1    2400    2421    2436    2457       1
    2397    2382    2394    2409       1    2397    2418    2400    2421       1
    2397    2418    2433    2454       1    2394    2382    2397    2418       1
    2394    2409    2388    2406       1    2394    2409    2430    2442       1
    2388    2406    2424    2442       1    2388    2409   -2430    2442       1
    2385    2376    2379    2388       1    2385    2376    2382    2394       1
    2385    2376    2382    2397       1    2385    2400   -2418    2397       1
    2385    2400    2418    2433       1    2385    2400    2421    2436       1
    2382    2376    2379    2388       1    2382    2376    2385    2400       1
    2382    2394   -2409    2388       1    2382    2394    2409    2430       1
    2382    2397   -2418    2400       1    2382    2397    2418    2433       1
    2379    2376    2382    2394       1    2379    2376    2382    2397       1
    2379    2376    2385    2400       1    2379    2388    2406    2424       1
    2379    2388   -2409    2394       1    2379    2388    2409    2430       1
    2376    2379    2388    2406       1    2376    2379    2388    2409       1
    2376    2382   -2394    2409       1    2376    2382    2397    2418       1
    2376    2385   -2400    2418       1    2376    2385    2400    2421       1
    2565    2544    2562    2571       1    2565    2574   -2580    2571       1
    2562    2544    2565    2574       1    2562    2571   -2580    2574       1
    2544    2562    2571    2580       1    2544    2565   -2574    2580       1
    2541    2562    2544    2565       1    2541    2562    2571    2580       1
    2529    2508    2526    2541       1    2529    2544   -2562    2541       1
    2529    2544    2562    2571       1    2529    2544    2565    2574       1
    2526    2508    2529    2544       1    2526    2541   -2562    2544       1
    2526    2541    2562    2571       1    2517    2496    2514    2532       1
    2517    2538   -2550    2532       1    2514    2496    2517    2538       1
    2514    2532   -2550    2538       1    2508    2526    2541    2562       1
    2508    2529   -2544    2562       1    2508    2529    2544    2565       1
    2505    2490    2502    2517       1    2505    2526    2508    2529       1
    2505    2526    2541    2562       1    2502    2490    2505    2526       1
    2502    2517    2496    2514       1    2502    2517    2538    2550       1
    2496    2514    2532    2550       1    2496    2517   -2538    2550       1
    2493    2484    2487    2496       1    2493    2484    2490    2502       1
    2493    2484    2490    2505       1    2493    2508   -2526    2505       1
    2493    2508    2526    2541       1    2493    2508    2529    2544       1
    2490    2484    2487    2496       1    2490    2484    2493    2508       1
    2490    2502   -2517    2496       1    2490    2502    2517    2538       1
    2490    2505   -2526    2508       1    2490    2505    2526    2541       1
    2487    2484    2490    2502       1    2487    2484    2490    2505       1
    2487    2484    2493    2508       1    2487    2496    2514    2532       1
    2487    2496   -2517    2502       1    2487    2496    2517    2538       1
    2484    2487    2496    2514       1    2484    2487    2496    2517       1
    2484    2490   -2502    2517       1    2484    2490    2505    2526       1
    2484    2493   -2508    2526       1    2484    2493    2508    2529       1
    2673    2652    2670    2679       1    2673    2682   -2688    2679       1
    2670    2652    2673    2682       1    2670    2679   -2688    2682       1
    2652    2670    2679    2688       1    2652    2673   -2682    2688       1
    2649    2670    2652    2673       1    2649    2670    2679    2688       1
    2637    2616    2634    2649       1    2637    2652   -2670    2649       1
    2637    2652    2670    2679       1    2637    2652    2673    2682       1
    2634    2616    2637    2652       1    2634    2649   -2670    2652       1
    2634    2649    2670    2679       1    2625    2604    2622    2640       1
    2625    2646   -2658    2640       1    2622    2604    2625    2646       1
    2622    2640   -2658    2646       1    2616    2634    2649    2670       1
    2616    2637   -2652    2670       1    2616    2637    2652    2673       1
    2613    2598    2610    2625       1    2613    2634    2616    2637       1
    2613    2634    2649    2670       1    2610    2598    2613    2634       1
    2610    2625    2604    2622       1    2610    2625    2646    2658       1
    2604    2622    2640    2658       1    2604    2625   -2646    2658       1
    2601    2592    2595    2604       1    2601    2592    2598    2610       1
    2601    2592    2598    2613       1    2601    2616   -2634    2613       1
    2601    2616    2634    2649       1    2601    2616    2637    2652       1
    2598    2592    2595    2604       1    2598    2592    2601    2616       1
    2598    2610   -2625    2604       1    2598    2610    2625    2646       1
    2598    2613   -2634    2616       1    2598    2613    2634    2649       1
    2595    2592    2598    2610       1    2595    2592    2598    2613       1
    2595    2592    2601    2616       1    2595    2604    2622    2640       1
    2595    2604   -2625    2610       1    2595    2604    2625    2646       1
    2592    2595    2604    2622       1    2592    2595    2604    2625       1
    2592    2598   -2610    2625       1    2592    2598    2613    2634       1
    2592    2601   -2616    2634       1    2592    2601    2616    2637       1
    2781    2760    2778    2787       1    2781    2790   -2796    2787       1
    2778    2760    2781    2790       1    2778    2787   -2796    2790       1
    2760    2778    2787    2796       1    2760    2781   -2790    2796       1
    2757    2778    2760    2781       1    2757    2778    2787    2796       1
    2745    2724    2742    2757       1    2745    2760   -2778    2757       1
    2745    2760    2778    2787       1    2745    2760    2781    2790       1
    2742    2724    2745    2760       1    2742    2757   -2778    2760       1
    2742    2757    2778    2787       1    2733    2712    2730    2748       1
    2733    2754   -2766    2748       1    2730    2712    2733    2754       1
    2730    2748   -2766    2754       1    2724    2742    2757    2778       1
    2724    2745   -2760    2778       1    2724    2745    2760    2781       1
    2721    2706    2718    2733       1    2721    2742    2724    2745       1
    2721    2742    2757    2778       1    2718    2706    2721    2742       1
    2718    2733    2712    2730       1    2718    2733    2754    2766       1
    2712    2730    2748    2766       1    2712    2733   -2754    2766       1
    2709    2700    2703    2712       1    2709    2700    2706    2718       1
    2709    2700    2706    2721       1    2709    2724   -2742    2721       1
    2709    2724    2742    2757       1    2709    2724    2745    2760       1
    2706    2700    2703    2712       1    2706    2700    2709    2724       1
    2706    2718   -2733    2712       1    2706    2718    2733    2754       1
    2706    2721   -2742    2724       1    2706    2721    2742    2757       1
    2703    2700    2706    2718       1    2703    2700    2706    2721       1
    2703    2700    2709    2724       1    2703    2712    2730    2748       1
    2703    2712   -2733    2718       1    2703    2712    2733    2754       1
    2700    2703    2712    2730       1    2700    2703    2712    2733       1
    2700    2706   -2718    2733       1    2700    2706    2721    2742       1
    2700    2709   -2724    2742       1    2700    2709    2724    2745       1
    2889    2868    2886    2895       1    2889    2898   -2904    2895       1
    2886    2868    2889    2898       1    2886    2895   -2904    2898       1
    2868    2886    2895    2904       1    2868    2889   -2898    2904       1
    2865    2886    2868    2889       1    2865    2886    2895    2904       1
    2853    2832    2850    2865       1    2853    2868   -2886    2865       1
    2853    2868    2886    2895       1    2853    2868    2889    2898       1
    2850    2832    2853    2868       1    2850    2865   -2886    2868       1
    2850    2865    2886    2895       1    2841    2820    2838    2856       1
    2841    2862   -2874    2856       1    2838    2820    2841    2862       1
    2838    2856   -2874    2862       1    2832    2850    2865    2886       1
    2832    2853   -2868    2886       1    2832    2853    2868    2889       1
    2829    2814    2826    2841       1    2829    2850    2832    2853       1
    2829    2850    2865    2886       1    2826    2814    2829    2850       1
    2826    2841    2820    2838       1    2826    2841    2862    2874       1
    2820    2838    2856    2874       1    2820    2841   -2862    2874       1
    2817    2808    2811    2820       1    2817    2808    2814    2826       1
    2817    2808    2814    2829       1    2817    2832   -2850    2829       1
    2817    2832    2850    2865       1    2817    2832    2853    2868       1
    2814    2808    2811    2820       1    2814    2808    2817    2832       1
    2814    2826   -2841    2820       1    2814    2826    2841    2862       1
    2814    2829   -2850    2832       1    2814    2829    2850    2865       1
    2811    2808    2814    2826       1    2811    2808    2814    2829       1
    2811    2808    2817    2832       1    2811    2820    2838    2856       1
    2811    2820   -2841    2826       1    2811    2820    2841    2862       1
    2808    2811    2820    2838       1    2808    2811    2820    2841       1
    2808    2814   -2826    2841       1    2808    2814    2829    2850       1
    2808    2817   -2832    2850       1    2808    2817    2832    2853       1
    2997    2976    2994    3003       1    2997    3006   -3012    3003       1
    2994    2976    2997    3006       1    2994    3003   -3012    3006       1
    2976    2994    3003    3012       1    2976    2997   -3006    3012       1
    2973    2994    2976    2997       1    2973    2994    3003    3012       1
    2961    2940    2958    2973       1    2961    2976   -2994    2973       1
    2961    2976    2994    3003       1    2961    2976    2997    3006       1
    2958    2940    2961    2976       1    2958    2973   -2994    2976       1
    2958    2973    2994    3003       1    2949    2928    2946    2964       1
    2949    2970   -2982    2964       1    2946    2928    2949    2970       1
    2946    2964   -2982    2970       1    2940    2958    2973    2994       1
    2940    2961   -2976    2994       1    2940    2961    2976    2997       1
    2937    2922    2934    2949       1    2937    2958    2940    2961       1
    2937    2958    2973    2994       1    2934    2922    2937    2958       1
    2934    2949    2928    2946       1    2934    2949    2970    2982       1
    2928    2946    2964    2982       1    2928    2949   -2970    2982       1
    2925    2916    2919    2928       1    2925    2916    2922    2934       1
    2925    2916    2922    2937       1    2925    2940   -2958    2937       1
    2925    2940    2958    2973       1    2925    2940    2961    2976       1
    2922    2916    2919    2928       1    2922    2916    2925    2940       1
    2922    2934   -2949    2928       1    2922    2934    2949    2970       1
    2922    2937   -2958    2940       1    2922    2937    2958    2973       1
    2919    2916    2922    2934       1    2919    2916    2922    2937       1
    2919    2916    2925    2940       1    2919    2928    2946    2964       1
    2919    2928   -2949    2934       1    2919    2928    2949    2970       1
    2916    2919    2928    2946       1    2916    2919    2928    2949       1
    2916    2922   -2934    2949       1    2916    2922    2937    2958       1
    2916    2925   -2940    2958       1    2916    2925    2940    2961       1
    3105    3084    3102    3111       1    3105    3114   -3120    3111       1
    3102    3084    3105    3114       1    3102    3111   -3120    3114       1
    3084    3102    3111    3120       1    3084    3105   -3114    3120       1
    3081    3102    3084    3105       1    3081    3102    3111    3120       1
    3069    3048    3066    3081       1    3069    3084   -3102    3081       1
    3069    3084    3102    3111       1    3069    3084    3105    3114       1
    3066    3048    3069    3084       1    3066    3081   -3102    3084       1
    3066    3081    3102    3111       1    3057    3036    3054    3072       1
    3057    3078   -3090    3072       1    3054    3036    3057    3078       1
    3054    3072   -3090    3078       1    3048    3066    3081    3102       1
    3048    3069   -3084    3102       1    3048    3069    3084    3105       1
    3045    3030    3042    3057       1    3045    3066    3048    3069       1
    3045    3066    3081    3102       1    3042    3030    3045    3066       1
    3042    3057    3036    3054       1    3042    3057    3078    3090       1
    3036    3054    3072    3090       1    3036    3057   -3078    3090       1
    3033    3024    3027    3036       1    3033    3024    3030    3042       1
    3033    3024    3030    3045       1    3033    3048   -3066    3045       1
    3033    3048    3066    3081       1    3033    3048    3069    3084       1
    3030    3024    3027    3036       1    3030    3024    3033    3048       1
    3030    3042   -3057    3036       1    3030    3042    3057    3078       1
    3030    3045   -3066    3048       1    3030    3045    3066    3081       1
    3027    3024    3030    3042       1    3027    3024    3030    3045       1
    3027    3024    3033    3048       1    3027    3036    3054    3072       1
    3027    3036   -3057    3042       1    3027    3036    3057    3078       1
    3024    3027    3036    3054       1    3024    3027    3036    3057       1
    3024    3030   -3042    3057       1    3024    3030    3045    3066       1
    3024    3033   -3048    3066       1    3024    3033    3048    3069       1
    3213    3192    3210    3219       1    3213    3222   -3228    3219       1
    3210    3192    3213    3222       1    3210    3219   -3228    3222       1
    3192    3210    3219    3228       1    3192    3213   -3222    3228       1
    3189    3210    3192    3213       1    3189    3210    3219    3228       1
    3177    3156    3174    3189       1    3177    3192   -3210    3189       1
    3177    3192    3210    3219       1    3177    3192    3213    3222       1
    3174    3156    3177    3192       1    3174    3189   -3210    3192       1
    3174    3189    3210    3219       1    3165    3144    3162    3180       1
    3165    3186   -3198    3180       1    3162    3144    3165    3186       1
    3162    3180   -3198    3186       1    3156    3174    3189    3210       1
    3156    3177   -3192    3210       1    3156    3177    3192    3213       1
    3153    3138    3150    3165       1    3153    3174    3156    3177       1
    3153    3174    3189    3210       1    3150    3138    3153    3174       1
    3150    3165    3144    3162       1    3150    3165    3186    3198       1
    3144    3162    3180    3198       1    3144    3165   -3186    3198       1
    3141    3132    3135    3144       1    3141    3132    3138    3150       1
    3141    3132    3138    3153       1    3141    3156   -3174    3153       1
    3141    3156    3174    3189       1    3141    3156    3177    3192       1
    3138    3132    3135    3144       1    3138    3132    3141    3156       1
    3138    3150   -3165    3144       1    3138    3150    3165    3186       1
    3138    3153   -3174    3156       1    3138    3153    3174    3189       1
    3135    3132    3138    3150       1    3135    3132    3138    3153       1
    3135    3132    3141    3156       1    3135    3144    3162    3180       1
    3135    3144   -3165    3150       1    3135    3144    3165    3186       1
    3132    3135    3144    3162       1    3132    3135    3144    3165       1
    3132    3138   -3150    3165       1    3132    3138    3153    3174       1
    3132    3141   -3156    3174       1    3132    3141    3156    3177       1
    3321    3300    3318    3327       1    3321    3330   -3336    3327       1
    3318    3300    3321    3330       1    3318    3327   -3336    3330       1
    3300    3318    3327    3336       1    3300    3321   -3330    3336       1
    3297    3318    3300    3321       1    3297    3318    3327    3336       1
    3285    3264    3282    3297       1    3285    3300   -3318    3297       1
    3285    3300    3318    3327       1    3285    3300    3321    3330       1
    3282    3264    3285    3300       1    3282    3297   -3318    3300       1
    3282    3297    3318    3327       1    3273    3252    3270    3288       1
    3273    3294   -3306    3288       1    3270    3252    3273    3294       1
    3270    3288   -3306    3294       1    3264    3282    3297    3318       1
    3264    3285   -3300    3318       1    3264    3285    3300    3321       1
    3261    3246    3258    3273       1    3261    3282    3264    3285       1
    3261    3282    3297    3318       1    3258    3246    3261    3282       1
    3258    3273    3252    3270       1    3258    3273    3294    3306       1
    3252    3270    3288    3306       1    3252    3273   -3294    3306       1
    3249    3240    3243    3252       1    3249    3240    3246    3258       1
    3249    3240    3246    3261       1    3249    3264   -3282    3261       1
    3249    3264    3282    3297       1    3249    3264    3285    3300       1
    3246    3240    3243    3252       1    3246    3240    3249    3264       1
    3246    3258   -3273    3252       1    3246    3258    3273    3294       1
    3246    3261   -3282    3264       1    3246    3261    3282    3297       1
    3243    3240    3246    3258       1    3243    3240    3246    3261       1
    3243    3240    3249    3264       1    3243    3252    3270    3288       1
    3243    3252   -3273    3258       1    3243    3252    3273    3294       1
    3240    3243    3252    3270       1    3240    3243    3252    3273       1
    3240    3246   -3258    3273       1    3240    3246    3261    3282       1
    3240    3249   -3264    3282       1    3240    3249    3264    3285       1
    3429    3408    3426    3435       1    3429    3438   -3444    3435       1
    3426    3408    3429    3438       1    3426    3435   -3444    3438       1
    3408    3426    3435    3444       1    3408    3429   -3438    3444       1
    3405    3426    3408    3429       1    3405    3426    3435    3444       1
    3393    3372    3390    3405       1    3393    3408   -3426    3405       1
    3393    3408    3426    3435       1    3393    3408    3429    3438       1
    3390    3372    3393    3408       1    3390    3405   -3426    3408       1
    3390    3405    3426    3435       1    3381    3360    3378    3396       1
    3381    3402   -3414    3396       1    3378    3360    3381    3402       1
    3378    3396   -3414    3402       1    3372    3390    3405    3426       1
    3372    3393   -3408    3426       1    3372    3393    3408    3429       1
    3369    3354    3366    3381       1    3369    3390    3372    3393       1
    3369    3390    3405    3426       1    3366    3354    3369    3390       1
    3366    3381    3360    3378       1    3366    3381    3402    3414       1
    3360    3378    3396    3414       1    3360    3381   -3402    3414       1
    3357    3348    3351    3360       1    3357    3348    3354    3366       1
    3357    3348    3354    3369       1    3357    3372   -3390    3369       1
    3357    3372    3390    3405       1    3357    3372    3393    3408       1
    3354    3348    3351    3360       1    3354    3348    3357    3372       1
    3354    3366   -3381    3360       1    3354    3366    3381    3402       1
    3354    3369   -3390    3372       1    3354    3369    3390    3405       1
    3351    3348    3354    3366       1    3351    3348    3354    3369       1
    3351    3348    3357    3372       1    3351    3360    3378    3396       1
    3351    3360   -3381    3366       1    3351    3360    3381    3402       1
    3348    3351    3360    3378       1    3348    3351    3360    3381       1
    3348    3354   -3366    3381       1    3348    3354    3369    3390       1
    3348    3357   -3372    3390       1    3348    3357    3372    3393       1
    3537    3516    3534    3543       1    3537    3546   -3552    3543       1
    3534    3516    3537    3546       1    3534    3543   -3552    3546       1
    3516    3534    3543    3552       1    3516    3537   -3546    3552       1
    3513    3534    3516    3537       1    3513    3534    3543    3552       1
    3501    3480    3498    3513       1    3501    3516   -3534    3513       1
    3501    3516    3534    3543       1    3501    3516    3537    3546       1
    3498    3480    3501    3516       1    3498    3513   -3534    3516       1
    3498    3513    3534    3543       1    3489    3468    3486    3504       1
    3489    3510   -3522    3504       1    3486    3468    3489    3510       1
    3486    3504   -3522    3510       1    3480    3498    3513    3534       1
    3480    3501   -3516    3534       1    3480    3501    3516    3537       1
    3477    3462    3474    3489       1    3477    3498    3480    3501       1
    3477    3498    3513    3534       1    3474    3462    3477    3498       1
    3474    3489    3468    3486       1    3474    3489    3510    3522       1
    3468    3486    3504    3522       1    3468    3489   -3510    3522       1
    3465    3456    3459    3468       1    3465    3456    3462    3474       1
    3465    3456    3462    3477       1    3465    3480   -3498    3477       1
    3465    3480    3498    3513       1    3465    3480    3501    3516       1
    3462    3456    3459    3468       1    3462    3456    3465    3480       1
    3462    3474   -3489    3468       1    3462    3474    3489    3510       1
    3462    3477   -3498    3480       1    3462    3477    3498    3513       1
    3459    3456    3462    3474       1    3459    3456    3462    3477       1
    3459    3456    3465    3480       1    3459    3468    3486    3504       1
    3459    3468   -3489    3474       1    3459    3468    3489    3510       1
    3456    3459    3468    3486       1    3456    3459    3468    3489       1
    3456    3462   -3474    3489       1    3456    3462    3477    3498       1
    3456    3465   -3480    3498       1    3456    3465    3480    3501       1
    3645    3624    3642    3651       1    3645    3654   -3660    3651       1
    3642    3624    3645    3654       1    3642    3651   -3660    3654       1
    3624    3642    3651    3660       1    3624    3645   -3654    3660       1
    3621    3642    3624    3645       1    3621    3642    3651    3660       1
    3609    3588    3606    3621       1    3609    3624   -3642    3621       1
    3609    3624    3642    3651       1    3609    3624    3645    3654       1
    3606    3588    3609    3624       1    3606    3621   -3642    3624       1
    3606    3621    3642    3651       1    3597    3576    3594    3612       1
    3597    3618   -3630    3612       1    3594    3576    3597    3618       1
    3594    3612   -3630    3618       1    3588    3606    3621    3642       1
    3588    3609   -3624    3642       1    3588    3609    3624    3645       1
    3585    3570    3582    3597       1    3585    3606    3588    3609       1
    3585    3606    3621    3642       1    3582    3570    3585    3606       1
    3582    3597    3576    3594       1    3582    3597    3618    3630       1
    3576    3594    3612    3630       1    3576    3597   -3618    3630       1
    3573    3564    3567    3576       1    3573    3564    3570    3582       1
    3573    3564    3570    3585       1    3573    3588   -3606    3585       1
    3573    3588    3606    3621       1    3573    3588    3609    3624       1
    3570    3564    3567    3576       1    3570    3564    3573    3588       1
    3570    3582   -3597    3576       1    3570    3582    3597    3618       1
    3570    3585   -3606    3588       1    3570    3585    3606    3621       1
    3567    3564    3570    3582       1    3567    3564    3570    3585       1
    3567    3564    3573    3588       1    3567    3576    3594    3612       1
    3567    3576   -3597    3582       1    3567    3576    3597    3618       1
    3564    3567    3576    3594       1    3564    3567    3576    3597       1
    3564    3570   -3582    3597       1    3564    3570    3585    3606       1
    3564    3573   -3588    3606       1    3564    3573    3588    3609       1
    3753    3732    3750    3759       1    3753    3762   -3768    3759       1
    3750    3732    3753    3762       1    3750    3759   -3768    3762       1
    3732    3750    3759    3768       1    3732    3753   -3762    3768       1
    3729    3750    3732    3753       1    3729    3750    3759    3768       1
    3717    3696    3714    3729       1    3717    3732   -3750    3729       1
    3717    3732    3750    3759       1    3717    3732    3753    3762       1
    3714    3696    3717    3732       1    3714    3729   -3750    3732       1
    3714    3729    3750    3759       1    3705    3684    3702    3720       1
    3705    3726   -3738    3720       1    3702    3684    3705    3726       1
    3702    3720   -3738    3726       1    3696    3714    3729    3750       1
    3696    3717   -3732    3750       1    3696    3717    3732    3753       1
    3693    3678    3690    3705       1    3693    3714    3696    3717       1
    3693    3714    3729    3750       1    3690    3678    3693    3714       1
    3690    3705    3684    3702       1    3690    3705    3726    3738       1
    3684    3702    3720    3738       1    3684    3705   -3726    3738       1
    3681    3672    3675    3684       1    3681    3672    3678    3690       1
    3681    3672    3678    3693       1    3681    3696   -3714    3693       1
    3681    3696    3714    3729       1    3681    3696    3717    3732       1
    3678    3672    3675    3684       1    3678    3672    3681    3696       1
    3678    3690   -3705    3684       1    3678    3690    3705    3726       1
    3678    3693   -3714    3696       1    3678    3693    3714    3729       1
    3675    3672    3678    3690       1    3675    3672    3678    3693       1
    3675    3672    3681    3696       1    3675    3684    3702    3720       1
    3675    3684   -3705    3690       1    3675    3684    3705    3726       1
    3672    3675    3684    3702       1    3672    3675    3684    3705       1
    3672    3678   -3690    3705       1    3672    3678    3693    3714       1
    3672    3681   -3696    3714       1    3672    3681    3696    3717       1
    3861    3840    3858    3867       1    3861    3870   -3876    3867       1
    3858    3840    3861    3870       1    3858    3867   -3876    3870       1
    3840    3858    3867    3876       1    3840    3861   -3870    3876       1
    3837    3858    3840    3861       1    3837    3858    3867    3876       1
    3825    3804    3822    3837       1    3825    3840   -3858    3837       1
    3825    3840    3858    3867       1    3825    3840    3861    3870       1
    3822    3804    3825    3840       1    3822    3837   -3858    3840       1
    3822    3837    3858    3867       1    3813    3792    3810    3828       1
    3813    3834   -3846    3828       1    3810    3792    3813    3834       1
    3810    3828   -3846    3834       1    3804    3822    3837    3858       1
    3804    3825   -3840    3858       1    3804    3825    3840    3861       1
    3801    3786    3798    3813       1    3801    3822    3804    3825       1
    3801    3822    3837    3858       1    3798    3786    3801    3822       1
    3798    3813    3792    3810       1    3798    3813    3834    3846       1
    3792    3810    3828    3846       1    3792    3813   -3834    3846       1
    3789    3780    3783    3792       1    3789    3780    3786    3798       1
    3789    3780    3786    3801       1    3789    3804   -3822    3801       1
    3789    3804    3822    3837       1    3789    3804    3825    3840       1
    3786    3780    3783    3792       1    3786    3780    3789    3804       1
    3786    3798   -3813    3792       1    3786    3798    3813    3834       1
    3786    3801   -3822    3804       1    3786    3801    3822    3837       1
    3783    3780    3786    3798       1    3783    3780    3786    3801       1
    3783    3780    3789    3804       1    3783    3792    3810    3828       1
    3783    3792   -3813    3798       1    3783    3792    3813    3834       1
    3780    3783    3792    3810       1    3780    3783    3792    3813       1
    3780    3786   -3798    3813       1    3780    3786    3801    3822       1
    3780    3789   -3804    3822       1    3780    3789    3804    3825       1
    3969    3948    3966    3975       1    3969    3978   -3984    3975       1
    3966    3948    3969    3978       1    3966    3975   -3984    3978       1
    3948    3966    3975    3984       1    3948    3969   -3978    3984       1
    3945    3966    3948    3969       1    3945    3966    3975    3984       1
    3933    3912    3930    3945       1    3933    3948   -3966    3945       1
    3933    3948    3966    3975       1    3933    3948    3969    3978       1
    3930    3912    3933    3948       1    3930    3945   -3966    3948       1
    3930    3945    3966    3975       1    3921    3900    3918    3936       1
    3921    3942   -3954    3936       1    3918    3900    3921    3942       1
    3918    3936   -3954    3942       1    3912    3930    3945    3966       1
    3912    3933   -3948    3966       1    3912    3933    3948    3969       1
    3909    3894    3906    3921       1    3909    3930    3912    3933       1
    3909    3930    3945    3966       1    3906    3894    3909    3930       1
    3906    3921    3900    3918       1    3906    3921    3942    3954       1
    3900    3918    3936    3954       1    3900    3921   -3942    3954       1
    3897    3888    3891    3900       1    3897    3888    3894    3906       1
    3897    3888    3894    3909       1    3897    3912   -3930    3909       1
    3897    3912    3930    3945       1    3897    3912    3933    3948       1
    3894    3888    3891    3900       1    3894    3888    3897    3912       1
    3894    3906   -3921    3900       1    3894    3906    3921    3942       1
    3894    3909   -3930    3912       1    3894    3909    3930    3945       1
    3891    3888    3894    3906       1    3891    3888    3894    3909       1
    3891    3888    3897    3912       1    3891    3900    3918    3936       1
    3891    3900   -3921    3906       1    3891    3900    3921    3942       1
    3888    3891    3900    3918       1    3888    3891    3900    3921       1
    3888    3894   -3906    3921       1    3888    3894    3909    3930       1
    3888    3897   -3912    3930       1    3888    3897    3912    3933       1
    4077    4056    4074    4083       1    4077    4086   -4092    4083       1
    4074    4056    4077    4086       1    4074    4083   -4092    4086       1
    4056    4074    4083    4092       1    4056    4077   -4086    4092       1
    4053    4074    4056    4077       1    4053    4074    4083    4092       1
    4041    4020    4038    4053       1    4041    4056   -4074    4053       1
    4041    4056    4074    4083       1    4041    4056    4077    4086       1
    4038    4020    4041    4056       1    4038    4053   -4074    4056       1
    4038    4053    4074    4083       1    4029    4008    4026    4044       1
    4029    4050   -4062    4044       1    4026    4008    4029    4050       1
    4026    4044   -4062    4050       1    4020    4038    4053    4074       1
    4020    4041   -4056    4074       1    4020    4041    4056    4077       1
    4017    4002    4014    4029       1    4017    4038    4020    4041       1
    4017    4038    4053    4074       1    4014    4002    4017    4038       1
    4014    4029    4008    4026       1    4014    4029    4050    4062       1
    4008    4026    4044    4062       1    4008    4029   -4050    4062       1
    4005    3996    3999    4008       1    4005    3996    4002    4014       1
    4005    3996    4002    4017       1    4005    4020   -4038    4017       1
    4005    4020    4038    4053       1    4005    4020    4041    4056       1
    4002    3996    3999    4008       1    4002    3996    4005    4020       1
    4002    4014   -4029    4008       1    4002    4014    4029    4050       1
    4002    4017   -4038    4020       1    4002    4017    4038    4053       1
    3999    3996    4002    4014       1    3999    3996    4002    4017       1
    3999    3996    4005    4020       1    3999    4008    4026    4044       1
    3999    4008   -4029    4014       1    3999    4008    4029    4050       1
    3996    3999    4008    4026       1    3996    3999    4008    4029       1
    3996    4002   -4014    4029       1    3996    4002    4017    4038       1
    3996    4005   -4020    4038       1    3996    4005    4020    4041       1
    4185    4164    4182    4191       1    4185    4194   -4200    4191       1
    4182    4164    4185    4194       1    4182    4191   -4200    4194       1
    4164    4182    4191    4200       1    4164    4185   -4194    4200       1
    4161    4182    4164    4185       1    4161    4182    4191    4200       1
    4149    4128    4146    4161       1    4149    4164   -4182    4161       1
    4149    4164    4182    4191       1    4149    4164    4185    4194       1
    4146    4128    4149    4164       1    4146    4161   -4182    4164       1
    4146    4161    4182    4191       1    4137    4116    4134    4152       1
    4137    4158   -4170    4152       1    4134    4116    4137    4158       1
    4134    4152   -4170    4158       1    4128    4146    4161    4182       1
    4128    4149   -4164    4182       1    4128    4149    4164    4185       1
    4125    4110    4122    4137       1    4125    4146    4128    4149       1
    4125    4146    4161    4182       1    4122    4110    4125    4146       1
    4122    4137    4116    4134       1    4122    4137    4158    4170       1
    4116    4134    4152    4170       1    4116    4137   -4158    4170       1
    4113    4104    4107    4116       1    4113    4104    4110    4122       1
    4113    4104    4110    4125       1    4113    4128   -4146    4125       1
    4113    4128    4146    4161       1    4113    4128    4149    4164       1
    4110    4104    4107    4116       1    4110    4104    4113    4128       1
    4110    4122   -4137    4116       1    4110    4122    4137    4158       1
    4110    4125   -4146    4128       1    4110    4125    4146    4161       1
    4107    4104    4110    4122       1    4107    4104    4110    4125       1
    4107    4104    4113    4128       1    4107    4116    4134    4152       1
    4107    4116   -4137    4122       1    4107    4116    4137    4158       1
    4104    4107    4116    4134       1    4104    4107    4116    4137       1
    4104    4110   -4122    4137       1    4104    4110    4125    4146       1
    4104    4113   -4128    4146       1    4104    4113    4128    4149       1
    4293    4272    4290    4299       1    4293    4302   -4308    4299       1
    4290    4272    4293    4302       1    4290    4299   -4308    4302       1
    4272    4290    4299    4308       1    4272    4293   -4302    4308       1
    4269    4290    4272    4293       1    4269    4290    4299    4308       1
    4257    4236    4254    4269       1    4257    4272   -4290    4269       1
    4257    4272    4290    4299       1    4257    4272    4293    4302       1
    4254    4236    4257    4272       1    4254    4269   -4290    4272       1
    4254    4269    4290    4299       1    4245    4224    4242    4260       1
    4245    4266   -4278    4260       1    4242    4224    4245    4266       1
    4242    4260   -4278    4266       1    4236    4254    4269    4290       1
    4236    4257   -4272    4290       1    4236    4257    4272    4293       1
    4233    4218    4230    4245       1    4233    4254    4236    4257       1
    4233    4254    4269    4290       1    4230    4218    4233    4254       1
    4230    4245    4224    4242       1    4230    4245    4266    4278       1
    4224    4242    4260    4278       1    4224    4245   -4266    4278       1
    4221    4212    4215    4224       1    4221    4212    4218    4230       1
    4221    4212    4218    4233       1    4221    4236   -4254    4233       1
    4221    4236    4254    4269       1    4221    4236    4257    4272       1
    4218    4212    4215    4224       1    4218    4212    4221    4236       1
    4218    4230   -4245    4224       1    4218    4230    4245    4266       1
    4218    4233   -4254    4236       1    4218    4233    4254    4269       1
    4215    4212    4218    4230       1    4215    4212    4218    4233       1
    4215    4212    4221    4236       1    4215    4224    4242    4260       1
    4215    4224   -4245    4230       1    4215    4224    4245    4266       1
    4212    4215    4224    4242       1    4212    4215    4224    4245       1
    4212    4218   -4230    4245       1    4212    4218    4233    4254       1
    4212    4221   -4236    4254       1    4212    4221    4236    4257       1
    4401    4380    4398    4407       1    4401    4410   -4416    4407       1
    4398    4380    4401    4410       1    4398    4407   -4416    4410       1
    4380    4398    4407    4416       1    4380    4401   -4410    4416       1
    4377    4398    4380    4401       1    4377    4398    4407    4416       1
    4365    4344    4362    4377       1    4365    4380   -4398    4377       1
    4365    4380    4398    4407       1    4365    4380    4401    4410       1
    4362    4344    4365    4380       1    4362    4377   -4398    4380       1
    4362    4377    4398    4407       1    4353    4332    4350    4368       1
    4353    4374   -4386    4368       1    4350    4332    4353    4374       1
    4350    4368   -4386    4374       1    4344    4362    4377    4398       1
    4344    4365   -4380    4398       1    4344    4365    4380    4401       1
    4341    4326    4338    4353       1    4341    4362    4344    4365       1
    4341    4362    4377    4398       1    4338    4326    4341    4362       1
    4338    4353    4332    4350       1    4338    4353    4374    4386       1
    4332    4350    4368    4386       1    4332    4353   -4374    4386       1
    4329    4320    4323    4332       1    4329    4320    4326    4338       1
    4329    4320    4326    4341       1    4329    4344   -4362    4341       1
    4329    4344    4362    4377       1    4329    4344    4365    4380       1
    4326    4320    4323    4332       1    4326    4320    4329    4344       1
    4326    4338   -4353    4332       1    4326    4338    4353    4374       1
    4326    4341   -4362    4344       1    4326    4341    4362    4377       1
    4323    4320    4326    4338       1    4323    4320    4326    4341       1
    4323    4320    4329    4344       1    4323    4332    4350    4368       1
    4323    4332   -4353    4338       1    4323    4332    4353    4374       1
    4320    4323    4332    4350       1    4320    4323    4332    4353       1
    4320    4326   -4338    4353       1    4320    4326    4341    4362       1
    4320    4329   -4344    4362       1    4320    4329    4344    4365       1
    4509    4488    4506    4515       1    4509    4518   -4524    4515       1
    4506    4488    4509    4518       1    4506    4515   -4524    4518       1
    4488    4506    4515    4524       1    4488    4509   -4518    4524       1
    4485    4506    4488    4509       1    4485    4506    4515    4524       1
    4473    4452    4470    4485       1    4473    4488   -4506    4485       1
    4473    4488    4506    4515       1    4473    4488    4509    4518       1
    4470    4452    4473    4488       1    4470    4485   -4506    4488       1
    4470    4485    4506    4515       1    4461    4440    4458    4476       1
    4461    4482   -4494    4476       1    4458    4440    4461    4482       1
    4458    4476   -4494    4482       1    4452    4470    4485    4506       1
    4452    4473   -4488    4506       1    4452    4473    4488    4509       1
    4449    4434    4446    4461       1    4449    4470    4452    4473       1
    4449    4470    4485    4506       1    4446    4434    4449    4470       1
    4446    4461    4440    4458       1    4446    4461    4482    4494       1
    4440    4458    4476    4494       1    4440    4461   -4482    4494       1
    4437    4428    4431    4440       1    4437    4428    4434    4446       1
    4437    4428    4434    4449       1    4437    4452   -4470    4449       1
    4437    4452    4470    4485       1    4437    4452    4473    4488       1
    4434    4428    4431    4440       1    4434    4428    4437    4452       1
    4434    4446   -4461    4440       1    4434    4446    4461    4482       1
    4434    4449   -4470    4452       1    4434    4449    4470    4485       1
    4431    4428    4434    4446       1    4431    4428    4434    4449       1
    4431    4428    4437    4452       1    4431    4440    4458    4476       1
    4431    4440   -4461    4446       1    4431    4440    4461    4482       1
    4428    4431    4440    4458       1    4428    4431    4440    4461       1
    4428    4434   -4446    4461       1    4428    4434    4449    4470       1
    4428    4437   -4452    4470       1    4428    4437    4452    4473       1
    4617    4596    4614    4623       1    4617    4626   -4632    4623       1
    4614    4596    4617    4626       1    4614    4623   -4632    4626       1
    4596    4614    4623    4632       1    4596    4617   -4626    4632       1
    4593    4614    4596    4617       1    4593    4614    4623    4632       1
    4581    4560    4578    4593       1    4581    4596   -4614    4593       1
    4581    4596    4614    4623       1    4581    4596    4617    4626       1
    4578    4560    4581    4596       1    4578    4593   -4614    4596       1
    4578    4593    4614    4623       1    4569    4548    4566    4584       1
    4569    4590   -4602    4584       1    4566    4548    4569    4590       1
    4566    4584   -4602    4590       1    4560    4578    4593    4614       1
    4560    4581   -4596    4614       1    4560    4581    4596    4617       1
    4557    4542    4554    4569       1    4557    4578    4560    4581       1
    4557    4578    4593    4614       1    4554    4542    4557    4578       1
    4554    4569    4548    4566       1    4554    4569    4590    4602       1
    4548    4566    4584    4602       1    4548    4569   -4590    4602       1
    4545    4536    4539    4548       1    4545    4536    4542    4554       1
    4545    4536    4542    4557       1    4545    4560   -4578    4557       1
    4545    4560    4578    4593       1    4545    4560    4581    4596       1
    4542    4536    4539    4548       1    4542    4536    4545    4560       1
    4542    4554   -4569    4548       1    4542    4554    4569    4590       1
    4542    4557   -4578    4560       1    4542    4557    4578    4593       1
    4539    4536    4542    4554       1    4539    4536    4542    4557       1
    4539    4536    4545    4560       1    4539    4548    4566    4584       1
    4539    4548   -4569    4554       1    4539    4548    4569    4590       1
    4536    4539    4548    4566       1    4536    4539    4548    4569       1
    4536    4542   -4554    4569       1    4536    4542    4557    4578       1
    4536    4545   -4560    4578       1    4536    4545    4560    4581       1
    4725    4704    4722    4731       1    4725    4734   -4740    4731       1
    4722    4704    4725    4734       1    4722    4731   -4740    4734       1
    4704    4722    4731    4740       1    4704    4725   -4734    4740       1
    4701    4722    4704    4725       1    4701    4722    4731    4740       1
    4689    4668    4686    4701       1    4689    4704   -4722    4701       1
    4689    4704    4722    4731       1    4689    4704    4725    4734       1
    4686    4668    4689    4704       1    4686    4701   -4722    4704       1
    4686    4701    4722    4731       1    4677    4656    4674    4692       1
    4677    4698   -4710    4692       1    4674    4656    4677    4698       1
    4674    4692   -4710    4698       1    4668    4686    4701    4722       1
    4668    4689   -4704    4722       1    4668    4689    4704    4725       1
    4665    4650    4662    4677       1    4665    4686    4668    4689       1
    4665    4686    4701    4722       1    4662    4650    4665    4686       1
    4662    4677    4656    4674       1    4662    4677    4698    4710       1
    4656    4674    4692    4710       1    4656    4677   -4698    4710       1
    4653    4644    4647    4656       1    4653    4644    4650    4662       1
    4653    4644    4650    4665       1    4653    4668   -4686    4665       1
    4653    4668    4686    4701       1    4653    4668    4689    4704       1
    4650    4644    4647    4656       1    4650    4644    4653    4668       1
    4650    4662   -4677    4656       1    4650    4662    4677    4698       1
    4650    4665   -4686    4668       1    4650    4665    4686    4701       1
    4647    4644    4650    4662       1    4647    4644    4650    4665       1
    4647    4644    4653    4668       1    4647    4656    4674    4692       1
    4647    4656   -4677    4662       1    4647    4656    4677    4698       1
    4644    4647    4656    4674       1    4644    4647    4656    4677       1
    4644    4650   -4662    4677       1    4644    4650    4665    4686       1
    4644    4653   -4668    4686       1    4644    4653    4668    4689       1
    4833    4812    4830    4839       1    4833    4842   -4848    4839       1
    4830    4812    4833    4842       1    4830    4839   -4848    4842       1
    4812    4830    4839    4848       1    4812    4833   -4842    4848       1
    4809    4830    4812    4833       1    4809    4830    4839    4848       1
    4797    4776    4794    4809       1    4797    4812   -4830    4809       1
    4797    4812    4830    4839       1    4797    4812    4833    4842       1
    4794    4776    4797    4812       1    4794    4809   -4830    4812       1
    4794    4809    4830    4839       1    4785    4764    4782    4800       1
    4785    4806   -4818    4800       1    4782    4764    4785    4806       1
    4782    4800   -4818    4806       1    4776    4794    4809    4830       1
    4776    4797   -4812    4830       1    4776    4797    4812    4833       1
    4773    4758    4770    4785       1    4773    4794    4776    4797       1
    4773    4794    4809    4830       1    4770    4758    4773    4794       1
    4770    4785    4764    4782       1    4770    4785    4806    4818       1
    4764    4782    4800    4818       1    4764    4785   -4806    4818       1
    4761    4752    4755    4764       1    4761    4752    4758    4770       1
    4761    4752    4758    4773       1    4761    4776   -4794    4773       1
    4761    4776    4794    4809       1    4761    4776    4797    4812       1
    4758    4752    4755    4764       1    4758    4752    4761    4776       1
    4758    4770   -4785    4764       1    4758    4770    4785    4806       1
    4758    4773   -4794    4776       1    4758    4773    4794    4809       1
    4755    4752    4758    4770       1    4755    4752    4758    4773       1
    4755    4752    4761    4776       1    4755    4764    4782    4800       1
    4755    4764   -4785    4770       1    4755    4764    4785    4806       1
    4752    4755    4764    4782       1    4752    4755    4764    4785       1
    4752    4758   -4770    4785       1    4752    4758    4773    4794       1
    4752    4761   -4776    4794       1    4752    4761    4776    4797       1
    4941    4920    4938    4947       1    4941    4950   -4956    4947       1
    4938    4920    4941    4950       1    4938    4947   -4956    4950       1
    4920    4938    4947    4956       1    4920    4941   -4950    4956       1
    4917    4938    4920    4941       1    4917    4938    4947    4956       1
    4905    4884    4902    4917       1    4905    4920   -4938    4917       1
    4905    4920    4938    4947       1    4905    4920    4941    4950       1
    4902    4884    4905    4920       1    4902    4917   -4938    4920       1
    4902    4917    4938    4947       1    4893    4872    4890    4908       1
    4893    4914   -4926    4908       1    4890    4872    4893    4914       1
    4890    4908   -4926    4914       1    4884    4902    4917    4938       1
    4884    4905   -4920    4938       1    4884    4905    4920    4941       1
    4881    4866    4878    4893       1    4881    4902    4884    4905       1
    4881    4902    4917    4938       1    4878    4866    4881    4902       1
    4878    4893    4872    4890       1    4878    4893    4914    4926       1
    4872    4890    4908    4926       1    4872    4893   -4914    4926       1
    4869    4860    4863    4872       1    4869    4860    4866    4878       1
    4869    4860    4866    4881       1    4869    4884   -4902    4881       1
    4869    4884    4902    4917       1    4869    4884    4905    4920       1
    4866    4860    4863    4872       1    4866    4860    4869    4884       1
    4866    4878   -4893    4872       1    4866    4878    4893    4914       1
    4866    4881   -4902    4884       1    4866    4881    4902    4917       1
    4863    4860    4866    4878       1    4863    4860    4866    4881       1
    4863    4860    4869    4884       1    4863    4872    4890    4908       1
    4863    4872   -4893    4878       1    4863    4872    4893    4914       1
    4860    4863    4872    4890       1    4860    4863    4872    4893       1
    4860    4866   -4878    4893       1    4860    4866    4881    4902       1
    4860    4869   -4884    4902       1    4860    4869    4884    4905       1
    5049    5028    5046    5055       1    5049    5058   -5064    5055       1
    5046    5028    5049    5058       1    5046    5055   -5064    5058       1
    5028    5046    5055    5064       1    5028    5049   -5058    5064       1
    5025    5046    5028    5049       1    5025    5046    5055    5064       1
    5013    4992    5010    5025       1    5013    5028   -5046    5025       1
    5013    5028    5046    5055       1    5013    5028    5049    5058       1
    5010    4992    5013    5028       1    5010    5025   -5046    5028       1
    5010    5025    5046    5055       1    5001    4980    4998    5016       1
    5001    5022   -5034    5016       1    4998    4980    5001    5022       1
    4998    5016   -5034    5022       1    4992    5010    5025    5046       1
    4992    5013   -5028    5046       1    4992    5013    5028    5049       1
    4989    4974    4986    5001       1    4989    5010    4992    5013       1
    4989    5010    5025    5046       1    4986    4974    4989    5010       1
    4986    5001    4980    4998       1    4986    5001    5022    5034       1
    4980    4998    5016    5034       1    4980    5001   -5022    5034       1
    4977    4968    4971    4980       1    4977    4968    4974    4986       1
    4977    4968    4974    4989       1    4977    4992   -5010    4989       1
    4977    4992    5010    5025       1    4977    4992    5013    5028       1
    4974    4968    4971    4980       1    4974    4968    4977    4992       1
    4974    4986   -5001    4980       1    4974    4986    5001    5022       1
    4974    4989   -5010    4992       1    4974    4989    5010    5025       1
    4971    4968    4974    4986       1    4971    4968    4974    4989       1
    4971    4968    4977    4992       1    4971    4980    4998    5016       1
    4971    4980   -5001    4986       1    4971    4980    5001    5022       1
    4968    4971    4980    4998       1    4968    4971    4980    5001       1
    4968    4974   -4986    5001       1    4968    4974    4989    5010       1
    4968    4977   -4992    5010       1    4968    4977    4992    5013       1
    5157    5136    5154    5163       1    5157    5166   -5172    5163       1
    5154    5136    5157    5166       1    5154    5163   -5172    5166       1
    5136    5154    5163    5172       1    5136    5157   -5166    5172       1
    5133    5154    5136    5157       1    5133    5154    5163    5172       1
    5121    5100    5118    5133       1    5121    5136   -5154    5133       1
    5121    5136    5154    5163       1    5121    5136    5157    5166       1
    5118    5100    5121    5136       1    5118    5133   -5154    5136       1
    5118    5133    5154    5163       1    5109    5088    5106    5124       1
    5109    5130   -5142    5124       1    5106    5088    5109    5130       1
    5106    5124   -5142    5130       1    5100    5118    5133    5154       1
    5100    5121   -5136    5154       1    5100    5121    5136    5157       1
    5097    5082    5094    5109       1    5097    5118    5100    5121       1
    5097    5118    5133    5154       1    5094    5082    5097    5118       1
    5094    5109    5088    5106       1    5094    5109    5130    5142       1
    5088    5106    5124    5142       1    5088    5109   -5130    5142       1
    5085    5076    5079    5088       1    5085    5076    5082    5094       1
    5085    5076    5082    5097       1    5085    5100   -5118    5097       1
    5085    5100    5118    5133       1    5085    5100    5121    5136       1
    5082    5076    5079    5088       1    5082    5076    5085    5100       1
    5082    5094   -5109    5088       1    5082    5094    5109    5130       1
    5082    5097   -5118    5100       1    5082    5097    5118    5133       1
    5079    5076    5082    5094       1    5079    5076    5082    5097       1
    5079    5076    5085    5100       1    5079    5088    5106    5124       1
    5079    5088   -5109    5094       1    5079    5088    5109    5130       1
    5076    5079    5088    5106       1    5076    5079    5088    5109       1
    5076    5082   -5094    5109       1    5076    5082    5097    5118       1
    5076    5085   -5100    5118       1    5076    5085    5100    5121       1
    5265    5244    5262    5271       1    5265    5274   -5280    5271       1
    5262    5244    5265    5274       1    5262    5271   -5280    5274       1
    5244    5262    5271    5280       1    5244    5265   -5274    5280       1
    5241    5262    5244    5265       1    5241    5262    5271    5280       1
    5229    5208    5226    5241       1    5229    5244   -5262    5241       1
    5229    5244    5262    5271       1    5229    5244    5265    5274       1
    5226    5208    5229    5244       1    5226    5241   -5262    5244       1
    5226    5241    5262    5271       1    5217    5196    5214    5232       1
    5217    5238   -5250    5232       1    5214    5196    5217    5238       1
    5214    5232   -5250    5238       1    5208    5226    5241    5262       1
    5208    5229   -5244    5262       1    5208    5229    5244    5265       1
    5205    5190    5202    5217       1    5205    5226    5208    5229       1
    5205    5226    5241    5262       1    5202    5190    5205    5226       1
    5202    5217    5196    5214       1    5202    5217    5238    5250       1
    5196    5214    5232    5250       1    5196    5217   -5238    5250       1
    5193    5184    5187    5196       1    5193    5184    5190    5202       1
    5193    5184    5190    5205       1    5193    5208   -5226    5205       1
    5193    5208    5226    5241       1    5193    5208    5229    5244       1
    5190    5184    5187    5196       1    5190    5184    5193    5208       1
    5190    5202   -5217    5196       1    5190    5202    5217    5238       1
    5190    5205   -5226    5208       1    5190    5205    5226    5241       1
    5187    5184    5190    5202       1    5187    5184    5190    5205       1
    5187    5184    5193    5208       1    5187    5196    5214    5232       1
    5187    5196   -5217    5202       1    5187    5196    5217    5238       1
    5184    5187    5196    5214       1    5184    5187    5196    5217       1
    5184    5190   -5202    5217       1    5184    5190    5205    5226       1
    5184    5193   -5208    5226       1    5184    5193    5208    5229       1
    5373    5352    5370    5379       1    5373    5382   -5388    5379       1
    5370    5352    5373    5382       1    5370    5379   -5388    5382       1
    5352    5370    5379    5388       1    5352    5373   -5382    5388       1
    5349    5370    5352    5373       1    5349    5370    5379    5388       1
    5337    5316    5334    5349       1    5337    5352   -5370    5349       1
    5337    5352    5370    5379       1    5337    5352    5373    5382       1
    5334    5316    5337    5352       1    5334    5349   -5370    5352       1
    5334    5349    5370    5379       1    5325    5304    5322    5340       1
    5325    5346   -5358    5340       1    5322    5304    5325    5346       1
    5322    5340   -5358    5346       1    5316    5334    5349    5370       1
    5316    5337   -5352    5370       1    5316    5337    5352    5373       1
    5313    5298    5310    5325       1    5313    5334    5316    5337       1
    5313    5334    5349    5370       1    5310    5298    5313    5334       1
    5310    5325    5304    5322       1    5310    5325    5346    5358       1
    5304    5322    5340    5358       1    5304    5325   -5346    5358       1
    5301    5292    5295    5304       1    5301    5292    5298    5310       1
    5301    5292    5298    5313       1    5301    5316   -5334    5313       1
    5301    5316    5334    5349       1    5301    5316    5337    5352       1
    5298    5292    5295    5304       1    5298    5292    5301    5316       1
    5298    5310   -5325    5304       1    5298    5310    5325    5346       1
    5298    5313   -5334    5316       1    5298    5313    5334    5349       1
    5295    5292    5298    5310       1    5295    5292    5298    5313       1
    5295    5292    5301    5316       1    5295    5304    5322    5340       1
    5295    5304   -5325    5310       1    5295    5304    5325    5346       1
    5292    5295    5304    5322       1    5292    5295    5304    5325       1
    5292    5298   -5310    5325       1    5292    5298    5313    5334       1
    5292    5301   -5316    5334       1    5292    5301    5316    5337       1
    5481    5460    5478    5487       1    5481    5490   -5496    5487       1
    5478    5460    5481    5490       1    5478    5487   -5496    5490       1
    5460    5478    5487    5496       1    5460    5481   -5490    5496       1
    5457    5478    5460    5481       1    5457    5478    5487    5496       1
    5445    5424    5442    5457       1    5445    5460   -5478    5457       1
    5445    5460    5478    5487       1    5445    5460    5481    5490       1
    5442    5424    5445    5460       1    5442    5457   -5478    5460       1
    5442    5457    5478    5487       1    5433    5412    5430    5448       1
    5433    5454   -5466    5448       1    5430    5412    5433    5454       1
    5430    5448   -5466    5454       1    5424    5442    5457    5478       1
    5424    5445   -5460    5478       1    5424    5445    5460    5481       1
    5421    5406    5418    5433       1    5421    5442    5424    5445       1
    5421    5442    5457    5478       1    5418    5406    5421    5442       1
    5418    5433    5412    5430       1    5418    5433    5454    5466       1
    5412    5430    5448    5466       1    5412    5433   -5454    5466       1
    5409    5400    5403    5412       1    5409    5400    5406    5418       1
    5409    5400    5406    5421       1    5409    5424   -5442    5421       1
    5409    5424    5442    5457       1    5409    5424    5445    5460       1
    5406    5400    5403    5412       1    5406    5400    5409    5424       1
    5406    5418   -5433    5412       1    5406    5418    5433    5454       1
    5406    5421   -5442    5424       1    5406    5421    5442    5457       1
    5403    5400    5406    5418       1    5403    5400    5406    5421       1
    5403    5400    5409    5424       1    5403    5412    5430    5448       1
    5403    5412   -5433    5418       1    5403    5412    5433    5454       1
    5400    5403    5412    5430       1    5400    5403    5412    5433       1
    5400    5406   -5418    5433       1    5400    5406    5421    5442       1
    5400    5409   -5424    5442       1    5400    5409    5424    5445       1
    5589    5568    5586    5595       1    5589    5598   -5604    5595       1
    5586    5568    5589    5598       1    5586    5595   -5604    5598       1
    5568    5586    5595    5604       1    5568    5589   -5598    5604       1
    5565    5586    5568    5589       1    5565    5586    5595    5604       1
    5553    5532    5550    5565       1    5553    5568   -5586    5565       1
    5553    5568    5586    5595       1    5553    5568    5589    5598       1
    5550    5532    5553    5568       1    5550    5565   -5586    5568       1
    5550    5565    5586    5595       1    5541    5520    5538    5556       1
    5541    5562   -5574    5556       1    5538    5520    5541    5562       1
    5538    5556   -5574    5562       1    5532    5550    5565    5586       1
    5532    5553   -5568    5586       1    5532    5553    5568    5589       1
    5529    5514    5526    5541       1    5529    5550    5532    5553       1
    5529    5550    5565    5586       1    5526    5514    5529    5550       1
    5526    5541    5520    5538       1    5526    5541    5562    5574       1
    5520    5538    5556    5574       1    5520    5541   -5562    5574       1
    5517    5508    5511    5520       1    5517    5508    5514    5526       1
    5517    5508    5514    5529       1    5517    5532   -5550    5529       1
    5517    5532    5550    5565       1    5517    5532    5553    5568       1
    5514    5508    5511    5520       1    5514    5508    5517    5532       1
    5514    5526   -5541    5520       1    5514    5526    5541    5562       1
    5514    5529   -5550    5532       1    5514    5529    5550    5565       1
    5511    5508    5514    5526       1    5511    5508    5514    5529       1
    5511    5508    5517    5532       1    5511    5520    5538    5556       1
    5511    5520   -5541    5526       1    5511    5520    5541    5562       1
    5508    5511    5520    5538       1    5508    5511    5520    5541       1
    5508    5514   -5526    5541       1    5508    5514    5529    5550       1
    5508    5517   -5532    5550       1    5508    5517    5532    5553       1
    5697    5676    5694    5703       1    5697    5706   -5712    5703       1
    5694    5676    5697    5706       1    5694    5703   -5712    5706       1
    5676    5694    5703    5712       1    5676    5697   -5706    5712       1
    5673    5694    5676    5697       1    5673    5694    5703    5712       1
    5661    5640    5658    5673       1    5661    5676   -5694    5673       1
    5661    5676    5694    5703       1    5661    5676    5697    5706       1
    5658    5640    5661    5676       1    5658    5673   -5694    5676       1
    5658    5673    5694    5703       1    5649    5628    5646    5664       1
    5649    5670   -5682    5664       1    5646    5628    5649    5670       1
    5646    5664   -5682    5670       1    5640    5658    5673    5694       1
    5640    5661   -5676    5694       1    5640    5661    5676    5697       1
    5637    5622    5634    5649       1    5637    5658    5640    5661       1
    5637    5658    5673    5694       1    5634    5622    5637    5658       1
    5634    5649    5628    5646       1    5634    5649    5670    5682       1
    5628    5646    5664    5682       1    5628    5649   -5670    5682       1
    5625    5616    5619    5628       1    5625    5616    5622    5634       1
    5625    5616    5622    5637       1    5625    5640   -5658    5637       1
    5625    5640    5658    5673       1    5625    5640    5661    5676       1
    5622    5616    5619    5628       1    5622    5616    5625    5640       1
    5622    5634   -5649    5628       1    5622    5634    5649    5670       1
    5622    5637   -5658    5640       1    5622    5637    5658    5673       1
    5619    5616    5622    5634       1    5619    5616    5622    5637       1
    5619    5616    5625    5640       1    5619    5628    5646    5664       1
    5619    5628   -5649    5634       1    5619    5628    5649    5670       1
    5616    5619    5628    5646       1    5616    5619    5628    5649       1
    5616    5622   -5634    5649       1    5616    5622    5637    5658       1
    5616    5625   -5640    5658       1    5616    5625    5640    5661       1
    5805    5784    5802    5811       1    5805    5814   -5820    5811       1
    5802    5784    5805    5814       1    5802    5811   -5820    5814       1
    5784    5802    5811    5820       1    5784    5805   -5814    5820       1
    5781    5802    5784    5805       1    5781    5802    5811    5820       1
    5769    5748    5766    5781       1    5769    5784   -5802    5781       1
    5769    5784    5802    5811       1    5769    5784    5805    5814       1
    5766    5748    5769    5784       1    5766    5781   -5802    5784       1
    5766    5781    5802    5811       1    5757    5736    5754    5772       1
    5757    5778   -5790    5772       1    5754    5736    5757    5778       1
    5754    5772   -5790    5778       1    5748    5766    5781    5802       1
    5748    5769   -5784    5802       1    5748    5769    5784    5805       1
    5745    5730    5742    5757       1    5745    5766    5748    5769       1
    5745    5766    5781    5802       1    5742    5730    5745    5766       1
    5742    5757    5736    5754       1    5742    5757    5778    5790       1
    5736    5754    5772    5790       1    5736    5757   -5778    5790       1
    5733    5724    5727    5736       1    5733    5724    5730    5742       1
    5733    5724    5730    5745       1    5733    5748   -5766    5745       1
    5733    5748    5766    5781       1    5733    5748    5769    5784       1
    5730    5724    5727    5736       1    5730    5724    5733    5748       1
    5730    5742   -5757    5736       1    5730    5742    5757    5778       1
    5730    5745   -5766    5748       1    5730    5745    5766    5781       1
    5727    5724    5730    5742       1    5727    5724    5730    5745       1
    5727    5724    5733    5748       1    5727    5736    5754    5772       1
    5727    5736   -5757    5742       1    5727    5736    5757    5778       1
    5724    5727    5736    5754       1    5724    5727    5736    5757       1
    5724    5730   -5742    5757       1    5724    5730    5745    5766       1
    5724    5733   -5748    5766       1    5724    5733    5748    5769       1
      57      60     -78     -87       2      45      78     -60     -81       2
      21      24     -42     -57       2      12      18     -33     -54       2
       9      42     -24     -45       2       3      30     -12     -33       2
       0      18      -6     -21       2       9       0      -6      -3       2
     165     168    -186    -195       2     153     186    -168    -189       2
     129     132    -150    -165       2     120     126    -141    -162       2
     117     150    -132    -153       2     111     138    -120    -141       2
     108     126    -114    -129       2     111     114    -108    -117       2
     273     276    -294    -303       2     261     294    -276    -297       2
     237     240    -258    -273       2     228     234    -249    -270       2
     225     258    -240    -261       2     219     246    -228    -249       2
     216     234    -222    -237       2     219     222    -216    -225       2
     381     384    -402    -411       2     369     402    -384    -405       2
     345     348    -366    -381       2     336     342    -357    -378       2
     333     366    -348    -369       2     327     354    -336    -357       2
     324     342    -330    -345       2     327     330    -324    -333       2
     489     492    -510    -519       2     477     510    -492    -513       2
     453     456    -474    -489       2     444     450    -465    -486       2
     441     474    -456    -477       2     435     462    -444    -465       2
     432     450    -438    -453       2     435     438    -432    -441       2
     597     600    -618    -627       2     585     618    -600    -621       2
     561     564    -582    -597       2     552     558    -573    -594       2
     549     582    -564    -585       2     543     570    -552    -573       2
     540     558    -546    -561       2     543     546    -540    -549       2
     705     708    -726    -735       2     693     726    -708    -729       2
     669     672    -690    -705       2     660     666    -681    -702       2
     657     690    -672    -693       2     651     678    -660    -681       2
     648     666    -654    -669       2     651     654    -648    -657       2
     813     816    -834    -843       2     801     834    -816    -837       2
     777     780    -798    -813       2     768     774    -789    -810       2
     765     798    -780    -801       2     759     786    -768    -789       2
     756     774    -762    -777       2     759     762    -756    -765       2
     921     924    -942    -951       2     909     942    -924    -945       2
     885     888    -906    -921       2     876     882    -897    -918       2
     873     906    -888    -909       2     867     894    -876    -897       2
     864     882    -870    -885       2     867     870    -864    -873       2
    1029    1032   -1050   -1059       2    1017    1050   -1032   -1053       2
     993     996   -1014   -1029       2     984     990   -1005   -1026       2
     981    1014    -996   -1017       2     975    1002    -984   -1005       2
     972     990    -978    -993       2     975     978    -972    -981       2
    1137    1140   -1158   -1167       2    1125    1158   -1140   -1161       2
    1101    1104   -1122   -1137       2    1092    1098   -1113   -1134       2
    1089    1122   -1104   -1125       2    1083    1110   -1092   -1113       2
    1080    1098   -1086   -1101       2    1083    1086   -1080   -1089       2
    1245    1248   -1266   -1275       2    1233    1266   -1248   -1269       2
    1209    1212   -1230   -1245       2    1200    1206   -1221   -1242       2
    1197    1230   -1212   -1233       2    1191    1218   -1200   -1221       2
    1188    1206   -1194   -1209       2    1191    1194   -1188   -1197       2
    1353    1356   -1374   -1383       2    1341    1374   -1356   -1377       2
    1317    1320   -1338   -1353       2    1308    1314   -1329   -1350       2
    1305    1338   -1320   -1341       2    1299    1326   -1308   -1329       2
    1296    1314   -1302   -1317       2    1299    1302   -1296   -1305       2
    1461    1464   -1482   -1491       2    1449    1482   -1464   -1485       2
    1425    1428   -1446   -1461       2    1416    1422   -1437   -1458       2
    1413    1446   -1428   -1449       2    1407    1434   -1416   -1437       2
    1404    1422   -1410   -1425       2    1407    1410   -1404   -1413       2
    1569    1572   -1590   -1599       2    1557    1590   -1572   -1593       2
    1533    1536   -1554   -1569       2    1524    1530   -1545   -1566       2
    1521    1554   -1536   -1557       2    1515    1542   -1524   -1545       2
    1512    1530   -1518   -1533       2    1515    1518   -1512   -1521       2
    1677    1680   -1698   -1707       2    1665    1698   -1680   -1701       2
    1641    1644   -1662   -1677       2    1632    1638   -1653   -1674       2
    1629    1662   -1644   -1665       2    1623    1650   -1632   -1653       2
    1620    1638   -1626   -1641       2    1623    1626   -1620   -1629       2
    1785    1788   -1806   -1815       2    1773    1806   -1788   -1809       2
    1749    1752   -1770   -1785       2    1740    1746   -1761   -1782       2
    1737    1770   -1752   -1773       2    1731    1758   -1740   -1761       2
    1728    1746   -1734   -1749       2    1731    1734   -1728   -1737       2
    1893    1896   -1914   -1923       2    1881    1914   -1896   -1917       2
    1857    1860   -1878   -1893       2    1848    1854   -1869   -1890       2
    1845    1878   -1860   -1881       2    1839    1866   -1848   -1869       2
    1836    1854   -1842   -1857       2    1839    1842   -1836   -1845       2
    2001    2004   -2022   -2031       2    1989    2022   -2004   -2025       2
    1965    1968   -1986   -2001       2    1956    1962   -1977   -1998       2
    1953    1986   -1968   -1989       2    1947    1974   -1956   -1977       2
    1944    1962   -1950   -1965       2    1947    1950   -1944   -1953       2
    2109    2112   -2130   -2139       2    2097    2130   -2112   -2133       2
    2073    2076   -2094   -2109       2    2064    2070   -2085   -2106       2
    2061    2094   -2076   -2097       2    2055    2082   -2064   -2085       2
    2052    2070   -2058   -2073       2    2055    2058   -2052   -2061       2
    2217    2220   -2238   -2247       2    2205    2238   -2220   -2241       2
    2181    2184   -2202   -2217       2    2172    2178   -2193   -2214       2
    2169    2202   -2184   -2205       2    2163    2190   -2172   -2193       2
    2160    2178   -2166   -2181       2    2163    2166   -2160   -2169       2
    2325    2328   -2346   -2355       2    2313    2346   -2328   -2349       2
    2289    2292   -2310   -2325       2    2280    2286   -2301   -2322       2
    2277    2310   -2292   -2313       2    2271    2298   -2280   -2301       2
    2268    2286   -2274   -2289       2    2271    2274   -2268   -2277       2
    2433    2436   -2454   -2463       2    2421    2454   -2436   -2457       2
    2397    2400   -2418   -2433       2    2388    2394   -2409   -2430       2
    2385    2418   -2400   -2421       2    2379    2406   -2388   -2409       2
    2376    2394   -2382   -2397       2    2379    2382   -2376   -2385       2
    2541    2544   -2562   -2571       2    2529    2562   -2544   -2565       2
    2505    2508   -2526   -2541       2    2496    2502   -2517   -2538       2
    2493    2526   -2508   -2529       2    2487    2514   -2496   -2517       2
    2484    2502   -2490   -2505       2    2487    2490   -2484   -2493       2
    2649    2652   -2670   -2679       2    2637    2670   -2652   -2673       2
    2613    2616   -2634   -2649       2    2604    2610   -2625   -2646       2
    2601    2634   -2616   -2637       2    2595    2622   -2604   -2625       2
    2592    2610   -2598   -2613       2    2595    2598   -2592   -2601       2
    2757    2760   -2778   -2787       2    2745    2778   -2760   -2781       2
    2721    2724   -2742   -2757       2    2712    2718   -2733   -2754       2
    2709    2742   -2724   -2745       2    2703    2730   -2712   -2733       2
    2700    2718   -2706   -2721       2    2703    2706   -2700   -2709       2
    2865    2868   -2886   -2895       2    2853    2886   -2868   -2889       2
    2829    2832   -2850   -2865       2    2820    2826   -2841   -2862       2
    2817    2850   -2832   -2853       2    2811    2838   -2820   -2841       2
    2808    2826   -2814   -2829       2    2811    2814   -2808   -2817       2
    2973    2976   -2994   -3003       2    2961    2994   -2976   -2997       2
    2937    2940   -2958   -2973       2    2928    2934   -2949   -2970       2
    2925    2958   -2940   -2961       2    2919    2946   -2928   -2949       2
    2916    2934   -2922   -2937       2    2919    2922   -2916   -2925       2
    3081    3084   -3102   -3111       2    3069    3102   -3084   -3105       2
    3045    3048   -3066   -3081       2    3036    3042   -3057   -3078       2
    3033    3066   -3048   -3069       2    3027    3054   -3036   -3057       2
    3024    3042   -3030   -3045       2    3027    3030   -3024   -3033       2
    3189    3192   -3210   -3219       2    3177    3210   -3192   -3213       2
    3153    3156   -3174   -3189       2    3144    3150   -3165   -3186       2
    3141    3174   -3156   -3177       2    3135    3162   -3144   -3165       2
    3132    3150   -3138   -3153       2    3135    3138   -3132   -3141       2
    3297    3300   -3318   -3327       2    3285    3318   -3300   -3321       2
    3261    3264   -3282   -3297       2    3252    3258   -3273   -3294       2
    3249    3282   -3264   -3285       2    3243    3270   -3252   -3273       2
    3240    3258   -3246   -3261       2    3243    3246   -3240   -3249       2
    3405    3408   -3426   -3435       2    3393    3426   -3408   -3429       2
    3369    3372   -3390   -3405       2    3360    3366   -3381   -3402       2
    3357    3390   -3372   -3393       2    3351    3378   -3360   -3381       2
    3348    3366   -3354   -3369       2    3351    3354   -3348   -3357       2
    3513    3516   -3534   -3543       2    3501    3534   -3516   -3537       2
    3477    3480   -3498   -3513       2    3468    3474   -3489   -3510       2
    3465    3498   -3480   -3501       2    3459    3486   -3468   -3489       2
    3456    3474   -3462   -3477       2    3459    3462   -3456   -3465       2
    3621    3624   -3642   -3651       2    3609    3642   -3624   -3645       2
    3585    3588   -3606   -3621       2    3576    3582   -3597   -3618       2
    3573    3606   -3588   -3609       2    3567    3594   -3576   -3597       2
    3564    3582   -3570   -3585       2    3567    3570   -3564   -3573       2
    3729    3732   -3750   -3759       2    3717    3750   -3732   -3753       2
    3693    3696   -3714   -3729       2    3684    3690   -3705   -3726       2
    3681    3714   -3696   -3717       2    3675    3702   -3684   -3705       2
    3672    3690   -3678   -3693       2    3675    3678   -3672   -3681       2
    3837    3840   -3858   -3867       2    3825    3858   -3840   -3861       2
    3801    3804   -3822   -3837       2    3792    3798   -3813   -3834       2
    3789    3822   -3804   -3825       2    3783    3810   -3792   -3813       2
    3780    3798   -3786   -3801       2    3783    3786   -3780   -3789       2
    3945    3948   -3966   -3975       2    3933    3966   -3948   -3969       2
    3909    3912   -3930   -3945       2    3900    3906   -3921   -3942       2
    3897    3930   -3912   -3933       2    3891    3918   -3900   -3921       2
    3888    3906   -3894   -3909       2    3891    3894   -3888   -3897       2
    4053    4056   -4074   -4083       2    4041    4074   -4056   -4077       2
    4017    4020   -4038   -4053       2    4008    4014   -4029   -4050       2
    4005    4038   -4020   -4041       2    3999    4026   -4008   -4029       2
    3996    4014   -4002   -4017       2    3999    4002   -3996   -4005       2
    4161    4164   -4182   -4191       2    4149    4182   -4164   -4185       2
    4125    4128   -4146   -4161       2    4116    4122   -4137   -4158       2
    4113    4146   -4128   -4149       2    4107    4134   -4116   -4137       2
    4104    4122   -4110   -4125       2    4107    4110   -4104   -4113       2
    4269    4272   -4290   -4299       2    4257    4290   -4272   -4293       2
    4233    4236   -4254   -4269       2    4224    4230   -4245   -4266       2
    4221    4254   -4236   -4257       2    4215    4242   -4224   -4245       2
    4212    4230   -4218   -4233       2    4215    4218   -4212   -4221       2
    4377    4380   -4398   -4407       2    4365    4398   -4380   -4401       2
    4341    4344   -4362   -4377       2    4332    4338   -4353   -4374       2
    4329    4362   -4344   -4365       2    4323    4350   -4332   -4353       2
    4320    4338   -4326   -4341       2    4323    4326   -4320   -4329       2
    4485    4488   -4506   -4515       2    4473    4506   -4488   -4509       2
    4449    4452   -4470   -4485       2    4440    4446   -4461   -4482       2
    4437    4470   -4452   -4473       2    4431    4458   -4440   -4461       2
    4428    4446   -4434   -4449       2    4431    4434   -4428   -4437       2
    4593    4596   -4614   -4623       2    4581    4614   -4596   -4617       2
    4557    4560   -4578   -4593       2    4548    4554   -4569   -4590       2
    4545    4578   -4560   -4581       2    4539    4566   -4548   -4569       2
    4536    4554   -4542   -4557       2    4539    4542   -4536   -4545       2
    4701    4704   -4722   -4731       2    4689    4722   -4704   -4725       2
    4665    4668   -4686   -4701       2    4656    4662   -4677   -4698       2
    4653    4686   -4668   -4689       2    4647    4674   -4656   -4677       2
    4644    4662   -4650   -4665       2    4647    4650   -4644   -4653       2
    4809    4812   -4830   -4839       2    4797    4830   -4812   -4833       2
    4773    4776   -4794   -4809       2    4764    4770   -4785   -4806       2
    4761    4794   -4776   -4797       2    4755    4782   -4764   -4785       2
    4752    4770   -4758   -4773       2    4755    4758   -4752   -4761       2
    4917    4920   -4938   -4947       2    4905    4938   -4920   -4941       2
    4881    4884   -4902   -4917       2    4872    4878   -4893   -4914       2
    4869    4902   -4884   -4905       2    4863    4890   -4872   -4893       2
    4860    4878   -4866   -4881       2    4863    4866   -4860   -4869       2
    5025    5028   -5046   -5055       2    5013    5046   -5028   -5049       2
    4989    4992   -5010   -5025       2    4980    4986   -5001   -5022       2
    4977    5010   -4992   -5013       2    4971    4998   -4980   -5001       2
    4968    4986   -4974   -4989       2    4971    4974   -4968   -4977       2
    5133    5136   -5154   -5163       2    5121    5154   -5136   -5157       2
    5097    5100   -5118   -5133       2    5088    5094   -5109   -5130       2
    5085    5118   -5100   -5121       2    5079    5106   -5088   -5109       2
    5076    5094   -5082   -5097       2    5079    5082   -5076   -5085       2
    5241    5244   -5262   -5271       2    5229    5262   -5244   -5265       2
    5205    5208   -5226   -5241       2    5196    5202   -5217   -5238       2
    5193    5226   -5208   -5229       2    5187    5214   -5196   -5217       2
    5184    5202   -5190   -5205       2    5187    5190   -5184   -5193       2
    5349    5352   -5370   -5379       2    5337    5370   -5352   -5373       2
    5313    5316   -5334   -5349       2    5304    5310   -5325   -5346       2
    5301    5334   -5316   -5337       2    5295    5322   -5304   -5325       2
    5292    5310   -5298   -5313       2    5295    5298   -5292   -5301       2
    5457    5460   -5478   -5487       2    5445    5478   -5460   -5481       2
    5421    5424   -5442   -5457       2    5412    5418   -5433   -5454       2
    5409    5442   -5424   -5445       2    5403    5430   -5412   -5433       2
    5400    5418   -5406   -5421       2    5403    5406   -5400   -5409       2
    5565    5568   -5586   -5595       2    5553    5586   -5568   -5589       2
    5529    5532   -5550   -5565       2    5520    5526   -5541   -5562       2
    5517    5550   -5532   -5553       2    5511    5538   -5520   -5541       2
    5508    5526   -5514   -5529       2    5511    5514   -5508   -5517       2
    5673    5676   -5694   -5703       2    5661    5694   -5676   -5697       2
    5637    5640   -5658   -5673       2    5628    5634   -5649   -5670       2
    5625    5658   -5640   -5661       2    5619    5646   -5628   -5649       2
    5616    5634   -5622   -5637       2    5619    5622   -5616   -5625       2
    5781    5784   -5802   -5811       2    5769    5802   -5784   -5805       2
    5745    5748   -5766   -5781       2    5736    5742   -5757   -5778       2
    5733    5766   -5748   -5769       2    5727    5754   -5736   -5757       2
    5724    5742   -5730   -5745       2    5727    5730   -5724   -5733       2
%FLAG EXCLUDED_ATOMS_LIST                                                       
%FORMAT(10I8)                                                                   
       2       3       4       5       6       7       8       9      10      11
      12      13      14      15      16       3       4       5       6       7
       8       9      10      11      12      17      18      19       4       5
       6       7       8       9      10      12      13      14      15      19
      20       5       6       7       8       9      10      15      16      20
      21      22       6       7      11      12      13      17      18      19
      23      24      25      11      12       8      11      12      13      14
      15      19      23      25       9      12      13      14      15      16
      20      26      27      10      14      15      16      20      21      22
      26      27      28      15      16      12      17      18      19      23
      24      29      13      17      18      19      23      25      29      19
      15      20      16      20      21      22      26      27      30      20
      21      22      27      28      30      31      32      18      19      23
      24      25      29      23      24      23      24      25      29      21
      26      27      28      30      33      34      22      26      27      28
      30      31      32      33      34      35      27      28      24      25
      29      29      29      27      30      28      30      31      32      33
      34      36      30      31      32      33      35      36       0      31
      33      34      35      36      32      33      34      35      36      33
      35      34      35      36      36      36       0      38      39      40
      41      42      43      44      45      46      47      48      49      50
      51      52      39      40      41      42      43      44      45      46
      47      48      53      54      55      40      41      42      43      44
      45      46      48      49      50      51      55      56      41      42
      43      44      45      46      51      52      56      57      58      42
      43      47      48      49      53      54      55      59      60      61
      47      48      44      47      48      49      50      51      55      59
      61      45      48      49      50      51      52      56      62      63
      46      50      51      52      56      57      58      62      63      64
      51      52      48      53      54      55      59      60      65      49
      53      54      55      59      61      65      55      51      56      52
      56      57      58      62      63      66      56      57      58      63
      64      66      67      68      54      55      59      60      61      65
      59      60      59      60      61      65      57      62      63      64
      66      69      70      58      62      63      64      66      67      68
      69      70      71      63      64      60      61      65      65      65
      63      66      64      66      67      68      69      70      72      66
      67      68      69      71      72       0      67      69      70      71
      72      68      69      70      71      72      69      71      70      71
      72      72      72       0      74      75      76      77      78      79
      80      81      82      83      84      85      86      87      88      75
      76      77      78      79      80      81      82      83      84      89
      90      91      76      77      78      79      80      81      82      84
      85      86      87      91      92      77      78      79      80      81
      82      87      88      92      93      94      78      79      83      84
      85      89      90      91      95      96      97      83      84      80
      83      84      85      86      87      91      95      97      81      84
      85      86      87      88      92      98      99      82      86      87
      88      92      93      94      98      99     100      87      88      84
      89      90      91      95      96     101      85      89      90      91
      95      97     101      91      87      92      88      92      93      94
      98      99     102      92      93      94      99     100     102     103
     104      90      91      95      96      97     101      95      96      95
      96      97     101      93      98      99     100     102     105     106
      94      98      99     100     102     103     104     105     106     107
      99     100      96      97     101     101     101      99     102     100
     102     103     104     105     106     108     102     103     104     105
     107     108       0     103     105     106     107     108     104     105
     106     107     108     105     107     106     107     108     108     108
       0     110     111     112     113     114     115     116     117     118
     119     120     121     122     123     124     111     112     113     114
     115     116     117     118     119     120     125     126     127     112
     113     114     115     116     117     118     120     121     122     123
     127     128     113     114     115     116     117     118     123     124
     128     129     130     114     115     119     120     121     125     126
     127     131     132     133     119     120     116     119     120     121
     122     123     127     131     133     117     120     121     122     123
     124     128     134     135     118     122     123     124     128     129
     130     134     135     136     123     124     120     125     126     127
     131     132     137     121     125     126     127     131     133     137
     127     123     128     124     128     129     130     134     135     138
     128     129     130     135     136     138     139     140     126     127
     131     132     133     137     131     132     131     132     133     137
     129     134     135     136     138     141     142     130     134     135
     136     138     139     140     141     142     143     135     136     132
     133     137     137     137     135     138     136     138     139     140
     141     142     144     138     139     140     141     143     144       0
     139     141     142     143     144     140     141     142     143     144
     141     143     142     143     144     144     144       0     146     147
     148     149     150     151     152     153     154     155     156     157
     158     159     160     147     148     149     150     151     152     153
     154     155     156     161     162     163     148     149     150     151
     152     153     154     156     157     158     159     163     164     149
     150     151     152     153     154     159     160     164     165     166
     150     151     155     156     157     161     162     163     167     168
     169     155     156     152     155     156     157     158     159     163
     167     169     153     156     157     158     159     160     164     170
     171     154     158     159     160     164     165     166     170     171
     172     159     160     156     161     162     163     167     168     173
     157     161     162     163     167     169     173     163     159     164
     160     164     165     166     170     171     174     164     165     166
     171     172     174     175     176     162     163     167     168     169
     173     167     168     167     168     169     173     165     170     171
     172     174     177     178     166     170     171     172     174     175
     176     177     178     179     171     172     168     169     173     173
     173     171     174     172     174     175     176     177     178     180
     174     175     176     177     179     180       0     175     177     178
     179     180     176     177     178     179     180     177     179     178
     179     180     180     180       0     182     183     184     185     186
     187     188     189     190     191     192     193     194     195     196
     183     184     185     186     187     188     189     190     191     192
     197     198     199     184     185     186     187     188     189     190
     192     193     194     195     199     200     185     186     187     188
     189     190     195     196     200     201     202     186     187     191
     192     193     197     198     199     203     204     205     191     192
     188     191     192     193     194     195     199     203     205     189
     192     193     194     195     196     200     206     207     190     194
     195     196     200     201     202     206     207     208     195     196
     192     197     198     199     203     204     209     193     197     198
     199     203     205     209     199     195     200     196     200     201
     202     206     207     210     200     201     202     207     208     210
     211     212     198     199     203     204     205     209     203     204
     203     204     205     209     201     206     207     208     210     213
     214     202     206     207     208     210     211     212     213     214
     215     207     208     204     205     209     209     209     207     210
     208     210     211     212     213     214     216     210     211     212
     213     215     216       0     211     213     214     215     216     212
     213     214     215     216     213     215     214     215     216     216
     216       0     218     219     220     221     222     223     224     225
     226     227     228     229     230     231     232     219     220     221
     222     223     224     225     226     227     228     233     234     235
     220     221     222     223     224     225     226     228     229     230
     231     235     236     221     222     223     224     225     226     231
     232     236     237     238     222     223     227     228     229     233
     234     235     239     240     241     227     228     224     227     228
     229     230     231     235     239     241     225     228     229     230
     231     232     236     242     243     226     230     231     232     236
     237     238     242     243     244     231     232     228     233     234
     235     239     240     245     229     233     234     235     239     241
     245     235     231     236     232     236     237     238     242     243
     246     236     237     238     243     244     246     247     248     234
     235     239     240     241     245     239     240     239     240     241
     245     237     242     243     244     246     249     250     238     242
     243     244     246     247     248     249     250     251     243     244
     240     241     245     245     245     243     246     244     246     247
     248     249     250     252     246     247     248     249     251     252
       0     247     249     250     251     252     248     249     250     251
     252     249     251     250     251     252     252     252       0     254
     255     256     257     258     259     260     261     262     263     264
     265     266     267     268     255     256     257     258     259     260
     261     262     263     264     269     270     271     256     257     258
     259     260     261     262     264     265     266     267     271     272
     257     258     259     260     261     262     267     268     272     273
     274     258     259     263     264     265     269     270     271     275
     276     277     263     264     260     263     264     265     266     267
     271     275     277     261     264     265     266     267     268     272
     278     279     262     266     267     268     272     273     274     278
     279     280     267     268     264     269     270     271     275     276
     281     265     269     270     271     275     277     281     271     267
     272     268     272     273     274     278     279     282     272     273
     274     279     280     282     283     284     270     271     275     276
     277     281     275     276     275     276     277     281     273     278
     279     280     282     285     286     274     278     279     280     282
     283     284     285     286     287     279     280     276     277     281
     281     281     279     282     280     282     283     284     285     286
     288     282     283     284     285     287     288       0     283     285
     286     287     288     284     285     286     287     288     285     287
     286     287     288     288     288       0     290     291     292     293
     294     295     296     297     298     299     300     301     302     303
     304     291     292     293     294     295     296     297     298     299
     300     305     306     307     292     293     294     295     296     297
     298     300     301     302     303     307     308     293     294     295
     296     297     298     303     304     308     309     310     294     295
     299     300     301     305     306     307     311     312     313     299
     300     296     299     300     301     302     303     307     311     313
     297     300     301     302     303     304     308     314     315     298
     302     303     304     308     309     310     314     315     316     303
     304     300     305     306     307     311     312     317     301     305
     306     307     311     313     317     307     303     308     304     308
     309     310     314     315     318     308     309     310     315     316
     318     319     320     306     307     311     312     313     317     311
     312     311     312     313     317     309     314     315     316     318
     321     322     310     314     315     316     318     319     320     321
     322     323     315     316     312     313     317     317     317     315
     318     316     318     319     320     321     322     324     318     319
     320     321     323     324       0     319     321     322     323     324
     320     321     322     323     324     321     323     322     323     324
     324     324       0     326     327     328     329     330     331     332
     333     334     335     336     337     338     339     340     327     328
     329     330     331     332     333     334     335     336     341     342
     343     328     329     330     331     332     333     334     336     337
     338     339     343     344     329     330     331     332     333     334
     339     340     344     345     346     330     331     335     336     337
     341     342     343     347     348     349     335     336     332     335
     336     337     338     339     343     347     349     333     336     337
     338     339     340     344     350     351     334     338     339     340
     344     345     346     350     351     352     339     340     336     341
     342     343     347     348     353     337     341     342     343     347
     349     353     343     339     344     340     344     345     346     350
     351     354     344     345     346     351     352     354     355     356
     342     343     347     348     349     353     347     348     347     348
     349     353     345     350     351     352     354     357     358     346
     350     351     352     354     355     356     357     358     359     351
     352     348     349     353     353     353     351     354     352     354
     355     356     357     358     360     354     355     356     357     359
     360       0     355     357     358     359     360     356     357     358
     359     360     357     359     358     359     360     360     360       0
     362     363     364     365     366     367     368     369     370     371
     372     373     374     375     376     363     364     365     366     367
     368     369     370     371     372     377     378     379     364     365
     366     367     368     369     370     372     373     374     375     379
     380     365     366     367     368     369     370     375     376     380
     381     382     366     367     371     372     373     377     378     379
     383     384     385     371     372     368     371     372     373     374
     375     379     383     385     369     372     373     374     375     376
     380     386     387     370     374     375     376     380     381     382
     386     387     388     375     376     372     377     378     379     383
     384     389     373     377     378     379     383     385     389     379
     375     380     376     380     381     382     386     387     390     380
     381     382     387     388     390     391     392     378     379     383
     384     385     389     383     384     383     384     385     389     381
     386     387     388     390     393     394     382     386     387     388
     390     391     392     393     394     395     387     388     384     385
     389     389     389     387     390     388     390     391     392     393
     394     396     390     391     392     393     395     396       0     391
     393     394     395     396     392     393     394     395     396     393
     395     394     395     396     396     396       0     398     399     400
     401     402     403     404     405     406     407     408     409     410
     411     412     399     400     401     402     403     404     405     406
     407     408     413     414     415     400     401     402     403     404
     405     406     408     409     410     411     415     416     401     402
     403     404     405     406     411     412     416     417     418     402
     403     407     408     409     413     414     415     419     420     421
     407     408     404     407     408     409     410     411     415     419
     421     405     408     409     410     411     412     416     422     423
     406     410     411     412     416     417     418     422     423     424
     411     412     408     413     414     415     419     420     425     409
     413     414     415     419     421     425     415     411     416     412
     416     417     418     422     423     426     416     417     418     423
     424     426     427     428     414     415     419     420     421     425
     419     420     419     420     421     425     417     422     423     424
     426     429     430     418     422     423     424     426     427     428
     429     430     431     423     424     420     421     425     425     425
     423     426     424     426     427     428     429     430     432     426
     427     428     429     431     432       0     427     429     430     431
     432     428     429     430     431     432     429     431     430     431
     432     432     432       0     434     435     436     437     438     439
     440     441     442     443     444     445     446     447     448     435
     436     437     438     439     440     441     442     443     444     449
     450     451     436     437     438     439     440     441     442     444
     445     446     447     451     452     437     438     439     440     441
     442     447     448     452     453     454     438     439     443     444
     445     449     450     451     455     456     457     443     444     440
     443     444     445     446     447     451     455     457     441     444
     445     446     447     448     452     458     459     442     446     447
     448     452     453     454     458     459     460     447     448     444
     449     450     451     455     456     461     445     449     450     451
     455     457     461     451     447     452     448     452     453     454
     458     459     462     452     453     454     459     460     462     463
     464     450     451     455     456     457     461     455     456     455
     456     457     461     453     458     459     460     462     465     466
     454     458     459     460     462     463     464     465     466     467
     459     460     456     457     461     461     461     459     462     460
     462     463     464     465     466     468     462     463     464     465
     467     468       0     463     465     466     467     468     464     465
     466     467     468     465     467     466     467     468     468     468
       0     470     471     472     473     474     475     476     477     478
     479     480     481     482     483     484     471     472     473     474
     475     476     477     478     479     480     485     486     487     472
     473     474     475     476     477     478     480     481     482     483
     487     488     473     474     475     476     477     478     483     484
     488     489     490     474     475     479     480     481     485     486
     487     491     492     493     479     480     476     479     480     481
     482     483     487     491     493     477     480     481     482     483
     484     488     494     495     478     482     483     484     488     489
     490     494     495     496     483     484     480     485     486     487
     491     492     497     481     485     486     487     491     493     497
     487     483     488     484     488     489     490     494     495     498
     488     489     490     495     496     498     499     500     486     487
     491     492     493     497     491     492     491     492     493     497
     489     494     495     496     498     501     502     490     494     495
     496     498     499     500     501     502     503     495     496     492
     493     497     497     497     495     498     496     498     499     500
     501     502     504     498     499     500     501     503     504       0
     499     501     502     503     504     500     501     502     503     504
     501     503     502     503     504     504     504       0     506     507
     508     509     510     511     512     513     514     515     516     517
     518     519     520     507     508     509     510     511     512     513
     514     515     516     521     522     523     508     509     510     511
     512     513     514     516     517     518     519     523     524     509
     510     511     512     513     514     519     520     524     525     526
     510     511     515     516     517     521     522     523     527     528
     529     515     516     512     515     516     517     518     519     523
     527     529     513     516     517     518     519     520     524     530
     531     514     518     519     520     524     525     526     530     531
     532     519     520     516     521     522     523     527     528     533
     517     521     522     523     527     529     533     523     519     524
     520     524     525     526     530     531     534     524     525     526
     531     532     534     535     536     522     523     527     528     529
     533     527     528     527     528     529     533     525     530     531
     532     534     537     538     526     530     531     532     534     535
     536     537     538     539     531     532     528     529     533     533
     533     531     534     532     534     535     536     537     538     540
     534     535     536     537     539     540       0     535     537     538
     539     540     536     537     538     539     540     537     539     538
     539     540     540     540       0     542     543     544     545     546
     547     548     549     550     551     552     553     554     555     556
     543     544     545     546     547     548     549     550     551     552
     557     558     559     544     545     546     547     548     549     550
     552     553     554     555     559     560     545     546     547     548
     549     550     555     556     560     561     562     546     547     551
     552     553     557     558     559     563     564     565     551     552
     548     551     552     553     554     555     559     563     565     549
     552     553     554     555     556     560     566     567     550     554
     555     556     560     561     562     566     567     568     555     556
     552     557     558     559     563     564     569     553     557     558
     559     563     565     569     559     555     560     556     560     561
     562     566     567     570     560     561     562     567     568     570
     571     572     558     559     563     564     565     569     563     564
     563     564     565     569     561     566     567     568     570     573
     574     562     566     567     568     570     571     572     573     574
     575     567     568     564     565     569     569     569     567     570
     568     570     571     572     573     574     576     570     571     572
     573     575     576       0     571     573     574     575     576     572
     573     574     575     576     573     575     574     575     576     576
     576       0     578     579     580     581     582     583     584     585
     586     587     588     589     590     591     592     579     580     581
     582     583     584     585     586     587     588     593     594     595
     580     581     582     583     584     585     586     588     589     590
     591     595     596     581     582     583     584     585     586     591
     592     596     597     598     582     583     587     588     589     593
     594     595     599     600     601     587     588     584     587     588
     589     590     591     595     599     601     585     588     589     590
     591     592     596     602     603     586     590     591     592     596
     597     598     602     603     604     591     592     588     593     594
     595     599     600     605     589     593     594     595     599     601
     605     595     591     596     592     596     597     598     602     603
     606     596     597     598     603     604     606     607     608     594
     595     599     600     601     605     599     600     599     600     601
     605     597     602     603     604     606     609     610     598     602
     603     604     606     607     608     609     610     611     603     604
     600     601     605     605     605     603     606     604     606     607
     608     609     610     612     606     607     608     609     611     612
       0     607     609     610     611     612     608     609     610     611
     612     609     611     610     611     612     612     612       0     614
     615     616     617     618     619     620     621     622     623     624
     625     626     627     628     615     616     617     618     619     620
     621     622     623     624     629     630     631     616     617     618
     619     620     621     622     624     625     626     627     631     632
     617     618     619     620     621     622     627     628     632     633
     634     618     619     623     624     625     629     630     631     635
     636     637     623     624     620     623     624     625     626     627
     631     635     637     621     624     625     626     627     628     632
     638     639     622     626     627     628     632     633     634     638
     639     640     627     628     624     629     630     631     635     636
     641     625     629     630     631     635     637     641     631     627
     632     628     632     633     634     638     639     642     632     633
     634     639     640     642     643     644     630     631     635     636
     637     641     635     636     635     636     637     641     633     638
     639     640     642     645     646     634     638     639     640     642
     643     644     645     646     647     639     640     636     637     641
     641     641     639     642     640     642     643     644     645     646
     648     642     643     644     645     647     648       0     643     645
     646     647     648     644     645     646     647     648     645     647
     646     647     648     648     648       0     650     651     652     653
     654     655     656     657     658     659     660     661     662     663
     664     651     652     653     654     655     656     657     658     659
     660     665     666     667     652     653     654     655     656     657
     658     660     661     662     663     667     668     653     654     655
     656     657     658     663     664     668     669     670     654     655
     659     660     661     665     666     667     671     672     673     659
     660     656     659     660     661     662     663     667     671     673
     657     660     661     662     663     664     668     674     675     658
     662     663     664     668     669     670     674     675     676     663
     664     660     665     666     667     671     672     677     661     665
     666     667     671     673     677     667     663     668     664     668
     669     670     674     675     678     668     669     670     675     676
     678     679     680     666     667     671     672     673     677     671
     672     671     672     673     677     669     674     675     676     678
     681     682     670     674     675     676     678     679     680     681
     682     683     675     676     672     673     677     677     677     675
     678     676     678     679     680     681     682     684     678     679
     680     681     683     684       0     679     681     682     683     684
     680     681     682     683     684     681     683     682     683     684
     684     684       0     686     687     688     689     690     691     692
     693     694     695     696     697     698     699     700     687     688
     689     690     691     692     693     694     695     696     701     702
     703     688     689     690     691     692     693     694     696     697
     698     699     703     704     689     690     691     692     693     694
     699     700     704     705     706     690     691     695     696     697
     701     702     703     707     708     709     695     696     692     695
     696     697     698     699     703     707     709     693     696     697
     698     699     700     704     710     711     694     698     699     700
     704     705     706     710     711     712     699     700     696     701
     702     703     707     708     713     697     701     702     703     707
     709     713     703     699     704     700     704     705     706     710
     711     714     704     705     706     711     712     714     715     716
     702     703     707     708     709     713     707     708     707     708
     709     713     705     710     711     712     714     717     718     706
     710     711     712     714     715     716     717     718     719     711
     712     708     709     713     713     713     711     714     712     714
     715     716     717     718     720     714     715     716     717     719
     720       0     715     717     718     719     720     716     717     718
     719     720     717     719     718     719     720     720     720       0
     722     723     724     725     726     727     728     729     730     731
     732     733     734     735     736     723     724     725     726     727
     728     729     730     731     732     737     738     739     724     725
     726     727     728     729     730     732     733     734     735     739
     740     725     726     727     728     729     730     735     736     740
     741     742     726     727     731     732     733     737     738     739
     743     744     745     731     732     728     731     732     733     734
     735     739     743     745     729     732     733     734     735     736
     740     746     747     730     734     735     736     740     741     742
     746     747     748     735     736     732     737     738     739     743
     744     749     733     737     738     739     743     745     749     739
     735     740     736     740     741     742     746     747     750     740
     741     742     747     748     750     751     752     738     739     743
     744     745     749     743     744     743     744     745     749     741
     746     747     748     750     753     754     742     746     747     748
     750     751     752     753     754     755     747     748     744     745
     749     749     749     747     750     748     750     751     752     753
     754     756     750     751     752     753     755     756       0     751
     753     754     755     756     752     753     754     755     756     753
     755     754     755     756     756     756       0     758     759     760
     761     762     763     764     765     766     767     768     769     770
     771     772     759     760     761     762     763     764     765     766
     767     768     773     774     775     760     761     762     763     764
     765     766     768     769     770     771     775     776     761     762
     763     764     765     766     771     772     776     777     778     762
     763     767     768     769     773     774     775     779     780     781
     767     768     764     767     768     769     770     771     775     779
     781     765     768     769     770     771     772     776     782     783
     766     770     771     772     776     777     778     782     783     784
     771     772     768     773     774     775     779     780     785     769
     773     774     775     779     781     785     775     771     776     772
     776     777     778     782     783     786     776     777     778     783
     784     786     787     788     774     775     779     780     781     785
     779     780     779     780     781     785     777     782     783     784
     786     789     790     778     782     783     784     786     787     788
     789     790     791     783     784     780     781     785     785     785
     783     786     784     786     787     788     789     790     792     786
     787     788     789     791     792       0     787     789     790     791
     792     788     789     790     791     792     789     791     790     791
     792     792     792       0     794     795     796     797     798     799
     800     801     802     803     804     805     806     807     808     795
     796     797     798     799     800     801     802     803     804     809
     810     811     796     797     798     799     800     801     802     804
     805     806     807     811     812     797     798     799     800     801
     802     807     808     812     813     814     798     799     803     804
     805     809     810     811     815     816     817     803     804     800
     803     804     805     806     807     811     815     817     801     804
     805     806     807     808     812     818     819     802     806     807
     808     812     813     814     818     819     820     807     808     804
     809     810     811     815     816     821     805     809     810     811
     815     817     821     811     807     812     808     812     813     814
     818     819     822     812     813     814     819     820     822     823
     824     810     811     815     816     817     821     815     816     815
     816     817     821     813     818     819     820     822     825     826
     814     818     819     820     822     823     824     825     826     827
     819     820     816     817     821     821     821     819     822     820
     822     823     824     825     826     828     822     823     824     825
     827     828       0     823     825     826     827     828     824     825
     826     827     828     825     827     826     827     828     828     828
       0     830     831     832     833     834     835     836     837     838
     839     840     841     842     843     844     831     832     833     834
     835     836     837     838     839     840     845     846     847     832
     833     834     835     836     837     838     840     841     842     843
     847     848     833     834     835     836     837     838     843     844
     848     849     850     834     835     839     840     841     845     846
     847     851     852     853     839     840     836     839     840     841
     842     843     847     851     853     837     840     841     842     843
     844     848     854     855     838     842     843     844     848     849
     850     854     855     856     843     844     840     845     846     847
     851     852     857     841     845     846     847     851     853     857
     847     843     848     844     848     849     850     854     855     858
     848     849     850     855     856     858     859     860     846     847
     851     852     853     857     851     852     851     852     853     857
     849     854     855     856     858     861     862     850     854     855
     856     858     859     860     861     862     863     855     856     852
     853     857     857     857     855     858     856     858     859     860
     861     862     864     858     859     860     861     863     864       0
     859     861     862     863     864     860     861     862     863     864
     861     863     862     863     864     864     864       0     866     867
     868     869     870     871     872     873     874     875     876     877
     878     879     880     867     868     869     870     871     872     873
     874     875     876     881     882     883     868     869     870     871
     872     873     874     876     877     878     879     883     884     869
     870     871     872     873     874     879     880     884     885     886
     870     871     875     876     877     881     882     883     887     888
     889     875     876     872     875     876     877     878     879     883
     887     889     873     876     877     878     879     880     884     890
     891     874     878     879     880     884     885     886     890     891
     892     879     880     876     881     882     883     887     888     893
     877     881     882     883     887     889     893     883     879     884
     880     884     885     886     890     891     894     884     885     886
     891     892     894     895     896     882     883     887     888     889
     893     887     888     887     888     889     893     885     890     891
     892     894     897     898     886     890     891     892     894     895
     896     897     898     899     891     892     888     889     893     893
     893     891     894     892     894     895     896     897     898     900
     894     895     896     897     899     900       0     895     897     898
     899     900     896     897     898     899     900     897     899     898
     899     900     900     900       0     902     903     904     905     906
     907     908     909     910     911     912     913     914     915     916
     903     904     905     906     907     908     909     910     911     912
     917     918     919     904     905     906     907     908     909     910
     912     913     914     915     919     920     905     906     907     908
     909     910     915     916     920     921     922     906     907     911
     912     913     917     918     919     923     924     925     911     912
     908     911     912     913     914     915     919     923     925     909
     912     913     914     915     916     920     926     927     910     914
     915     916     920     921     922     926     927     928     915     916
     912     917     918     919     923     924     929     913     917     918
     919     923     925     929     919     915     920     916     920     921
     922     926     927     930     920     921     922     927     928     930
     931     932     918     919     923     924     925     929     923     924
     923     924     925     929     921     926     927     928     930     933
     934     922     926     927     928     930     931     932     933     934
     935     927     928     924     925     929     929     929     927     930
     928     930     931     932     933     934     936     930     931     932
     933     935     936       0     931     933     934     935     936     932
     933     934     935     936     933     935     934     935     936     936
     936       0     938     939     940     941     942     943     944     945
     946     947     948     949     950     951     952     939     940     941
     942     943     944     945     946     947     948     953     954     955
     940     941     942     943     944     945     946     948     949     950
     951     955     956     941     942     943     944     945     946     951
     952     956     957     958     942     943     947     948     949     953
     954     955     959     960     961     947     948     944     947     948
     949     950     951     955     959     961     945     948     949     950
     951     952     956     962     963     946     950     951     952     956
     957     958     962     963     964     951     952     948     953     954
     955     959     960     965     949     953     954     955     959     961
     965     955     951     956     952     956     957     958     962     963
     966     956     957     958     963     964     966     967     968     954
     955     959     960     961     965     959     960     959     960     961
     965     957     962     963     964     966     969     970     958     962
     963     964     966     967     968     969     970     971     963     964
     960     961     965     965     965     963     966     964     966     967
     968     969     970     972     966     967     968     969     971     972
       0     967     969     970     971     972     968     969     970     971
     972     969     971     970     971     972     972     972       0     974
     975     976     977     978     979     980     981     982     983     984
     985     986     987     988     975     976     977     978     979     980
     981     982     983     984     989     990     991     976     977     978
     979     980     981     982     984     985     986     987     991     992
     977     978     979     980     981     982     987     988     992     993
     994     978     979     983     984     985     989     990     991     995
     996     997     983     984     980     983     984     985     986     987
     991     995     997     981     984     985     986     987     988     992
     998     999     982     986     987     988     992     993     994     998
     999    1000     987     988     984     989     990     991     995     996
    1001     985     989     990     991     995     997    1001     991     987
     992     988     992     993     994     998     999    1002     992     993
     994     999    1000    1002    1003    1004     990     991     995     996
     997    1001     995     996     995     996     997    1001     993     998
     999    1000    1002    1005    1006     994     998     999    1000    1002
    1003    1004    1005    1006    1007     999    1000     996     997    1001
    1001    1001     999    1002    1000    1002    1003    1004    1005    1006
    1008    1002    1003    1004    1005    1007    1008       0    1003    1005
    1006    1007    1008    1004    1005    1006    1007    1008    1005    1007
    1006    1007    1008    1008    1008       0    1010    1011    1012    1013
    1014    1015    1016    1017    1018    1019    1020    1021    1022    1023
    1024    1011    1012    1013    1014    1015    1016    1017    1018    1019
    1020    1025    1026    1027    1012    1013    1014    1015    1016    1017
    1018    1020    1021    1022    1023    1027    1028    1013    1014    1015
    1016    1017    1018    1023    1024    1028    1029    1030    1014    1015
    1019    1020    1021    1025    1026    1027    1031    1032    1033    1019
    1020    1016    1019    1020    1021    1022    1023    1027    1031    1033
    1017    1020    1021    1022    1023    1024    1028    1034    1035    1018
    1022    1023    1024    1028    1029    1030    1034    1035    1036    1023
    1024    1020    1025    1026    1027    1031    1032    1037    1021    1025
    1026    1027    1031    1033    1037    1027    1023    1028    1024    1028
    1029    1030    1034    1035    1038    1028    1029    1030    1035    1036
    1038    1039    1040    1026    1027    1031    1032    1033    1037    1031
    1032    1031    1032    1033    1037    1029    1034    1035    1036    1038
    1041    1042    1030    1034    1035    1036    1038    1039    1040    1041
    1042    1043    1035    1036    1032    1033    1037    1037    1037    1035
    1038    1036    1038    1039    1040    1041    1042    1044    1038    1039
    1040    1041    1043    1044       0    1039    1041    1042    1043    1044
    1040    1041    1042    1043    1044    1041    1043    1042    1043    1044
    1044    1044       0    1046    1047    1048    1049    1050    1051    1052
    1053    1054    1055    1056    1057    1058    1059    1060    1047    1048
    1049    1050    1051    1052    1053    1054    1055    1056    1061    1062
    1063    1048    1049    1050    1051    1052    1053    1054    1056    1057
    1058    1059    1063    1064    1049    1050    1051    1052    1053    1054
    1059    1060    1064    1065    1066    1050    1051    1055    1056    1057
    1061    1062    1063    1067    1068    1069    1055    1056    1052    1055
    1056    1057    1058    1059    1063    1067    1069    1053    1056    1057
    1058    1059    1060    1064    1070    1071    1054    1058    1059    1060
    1064    1065    1066    1070    1071    1072    1059    1060    1056    1061
    1062    1063    1067    1068    1073    1057    1061    1062    1063    1067
    1069    1073    1063    1059    1064    1060    1064    1065    1066    1070
    1071    1074    1064    1065    1066    1071    1072    1074    1075    1076
    1062    1063    1067    1068    1069    1073    1067    1068    1067    1068
    1069    1073    1065    1070    1071    1072    1074    1077    1078    1066
    1070    1071    1072    1074    1075    1076    1077    1078    1079    1071
    1072    1068    1069    1073    1073    1073    1071    1074    1072    1074
    1075    1076    1077    1078    1080    1074    1075    1076    1077    1079
    1080       0    1075    1077    1078    1079    1080    1076    1077    1078
    1079    1080    1077    1079    1078    1079    1080    1080    1080       0
    1082    1083    1084    1085    1086    1087    1088    1089    1090    1091
    1092    1093    1094    1095    1096    1083    1084    1085    1086    1087
    1088    1089    1090    1091    1092    1097    1098    1099    1084    1085
    1086    1087    1088    1089    1090    1092    1093    1094    1095    1099
    1100    1085    1086    1087    1088    1089    1090    1095    1096    1100
    1101    1102    1086    1087    1091    1092    1093    1097    1098    1099
    1103    1104    1105    1091    1092    1088    1091    1092    1093    1094
    1095    1099    1103    1105    1089    1092    1093    1094    1095    1096
    1100    1106    1107    1090    1094    1095    1096    1100    1101    1102
    1106    1107    1108    1095    1096    1092    1097    1098    1099    1103
    1104    1109    1093    1097    1098    1099    1103    1105    1109    1099
    1095    1100    1096    1100    1101    1102    1106    1107    1110    1100
    1101    1102    1107    1108    1110    1111    1112    1098    1099    1103
    1104    1105    1109    1103    1104    1103    1104    1105    1109    1101
    1106    1107    1108    1110    1113    1114    1102    1106    1107    1108
    1110    1111    1112    1113    1114    1115    1107    1108    1104    1105
    1109    1109    1109    1107    1110    1108    1110    1111    1112    1113
    1114    1116    1110    1111    1112    1113    1115    1116       0    1111
    1113    1114    1115    1116    1112    1113    1114    1115    1116    1113
    1115    1114    1115    1116    1116    1116       0    1118    1119    1120
    1121    1122    1123    1124    1125    1126    1127    1128    1129    1130
    1131    1132    1119    1120    1121    1122    1123    1124    1125    1126
    1127    1128    1133    1134    1135    1120    1121    1122    1123    1124
    1125    1126    1128    1129    1130    1131    1135    1136    1121    1122
    1123    1124    1125    1126    1131    1132    1136    1137    1138    1122
    1123    1127    1128    1129    1133    1134    1135    1139    1140    1141
    1127    1128    1124    1127    1128    1129    1130    1131    1135    1139
    1141    1125    1128    1129    1130    1131    1132    1136    1142    1143
    1126    1130    1131    1132    1136    1137    1138    1142    1143    1144
    1131    1132    1128    1133    1134    1135    1139    1140    1145    1129
    1133    1134    1135    1139    1141    1145    1135    1131    1136    1132
    1136    1137    1138    1142    1143    1146    1136    1137    1138    1143
    1144    1146    1147    1148    1134    1135    1139    1140    1141    1145
    1139    1140    1139    1140    1141    1145    1137    1142    1143    1144
    1146    1149    1150    1138    1142    1143    1144    1146    1147    1148
    1149    1150    1151    1143    1144    1140    1141    1145    1145    1145
    1143    1146    1144    1146    1147    1148    1149    1150    1152    1146
    1147    1148    1149    1151    1152       0    1147    1149    1150    1151
    1152    1148    1149    1150    1151    1152    1149    1151    1150    1151
    1152    1152    1152       0    1154    1155    1156    1157    1158    1159
    1160    1161    1162    1163    1164    1165    1166    1167    1168    1155
    1156    1157    1158    1159    1160    1161    1162    1163    1164    1169
    1170    1171    1156    1157    1158    1159    1160    1161    1162    1164
    1165    1166    1167    1171    1172    1157    1158    1159    1160    1161
    1162    1167    1168    1172    1173    1174    1158    1159    1163    1164
    1165    1169    1170    1171    1175    1176    1177    1163    1164    1160
    1163    1164    1165    1166    1167    1171    1175    1177    1161    1164
    1165    1166    1167    1168    1172    1178    1179    1162    1166    1167
    1168    1172    1173    1174    1178    1179    1180    1167    1168    1164
    1169    1170    1171    1175    1176    1181    1165    1169    1170    1171
    1175    1177    1181    1171    1167    1172    1168    1172    1173    1174
    1178    1179    1182    1172    1173    1174    1179    1180    1182    1183
    1184    1170    1171    1175    1176    1177    1181    1175    1176    1175
    1176    1177    1181    1173    1178    1179    1180    1182    1185    1186
    1174    1178    1179    1180    1182    1183    1184    1185    1186    1187
    1179    1180    1176    1177    1181    1181    1181    1179    1182    1180
    1182    1183    1184    1185    1186    1188    1182    1183    1184    1185
    1187    1188       0    1183    1185    1186    1187    1188    1184    1185
    1186    1187    1188    1185    1187    1186    1187    1188    1188    1188
       0    1190    1191    1192    1193    1194    1195    1196    1197    1198
    1199    1200    1201    1202    1203    1204    1191    1192    1193    1194
    1195    1196    1197    1198    1199    1200    1205    1206    1207    1192
    1193    1194    1195    1196    1197    1198    1200    1201    1202    1203
    1207    1208    1193    1194    1195    1196    1197    1198    1203    1204
    1208    1209    1210    1194    1195    1199    1200    1201    1205    1206
    1207    1211    1212    1213    1199    1200    1196    1199    1200    1201
    1202    1203    1207    1211    1213    1197    1200    1201    1202    1203
    1204    1208    1214    1215    1198    1202    1203    1204    1208    1209
    1210    1214    1215    1216    1203    1204    1200    1205    1206    1207
    1211    1212    1217    1201    1205    1206    1207    1211    1213    1217
    1207    1203    1208    1204    1208    1209    1210    1214    1215    1218
    1208    1209    1210    1215    1216    1218    1219    1220    1206    1207
    1211    1212    1213    1217    1211    1212    1211    1212    1213    1217
    1209    1214    1215    1216    1218    1221    1222    1210    1214    1215
    1216    1218    1219    1220    1221    1222    1223    1215    1216    1212
    1213    1217    1217    1217    1215    1218    1216    1218    1219    1220
    1221    1222    1224    1218    1219    1220    1221    1223    1224       0
    1219    1221    1222    1223    1224    1220    1221    1222    1223    1224
    1221    1223    1222    1223    1224    1224    1224       0    1226    1227
    1228    1229    1230    1231    1232    1233    1234    1235    1236    1237
    1238    1239    1240    1227    1228    1229    1230    1231    1232    1233
    1234    1235    1236    1241    1242    1243    1228    1229    1230    1231
    1232    1233    1234    1236    1237    1238    1239    1243    1244    1229
    1230    1231    1232    1233    1234    1239    1240    1244    1245    1246
    1230    1231    1235    1236    1237    1241    1242    1243    1247    1248
    1249    1235    1236    1232    1235    1236    1237    1238    1239    1243
    1247    1249    1233    1236    1237    1238    1239    1240    1244    1250
    1251    1234    1238    1239    1240    1244    1245    1246    1250    1251
    1252    1239    1240    1236    1241    1242    1243    1247    1248    1253
    1237    1241    1242    1243    1247    1249    1253    1243    1239    1244
    1240    1244    1245    1246    1250    1251    1254    1244    1245    1246
    1251    1252    1254    1255    1256    1242    1243    1247    1248    1249
    1253    1247    1248    1247    1248    1249    1253    1245    1250    1251
    1252    1254    1257    1258    1246    1250    1251    1252    1254    1255
    1256    1257    1258    1259    1251    1252    1248    1249    1253    1253
    1253    1251    1254    1252    1254    1255    1256    1257    1258    1260
    1254    1255    1256    1257    1259    1260       0    1255    1257    1258
    1259    1260    1256    1257    1258    1259    1260    1257    1259    1258
    1259    1260    1260    1260       0    1262    1263    1264    1265    1266
    1267    1268    1269    1270    1271    1272    1273    1274    1275    1276
    1263    1264    1265    1266    1267    1268    1269    1270    1271    1272
    1277    1278    1279    1264    1265    1266    1267    1268    1269    1270
    1272    1273    1274    1275    1279    1280    1265    1266    1267    1268
    1269    1270    1275    1276    1280    1281    1282    1266    1267    1271
    1272    1273    1277    1278    1279    1283    1284    1285    1271    1272
    1268    1271    1272    1273    1274    1275    1279    1283    1285    1269
    1272    1273    1274    1275    1276    1280    1286    1287    1270    1274
    1275    1276    1280    1281    1282    1286    1287    1288    1275    1276
    1272    1277    1278    1279    1283    1284    1289    1273    1277    1278
    1279    1283    1285    1289    1279    1275    1280    1276    1280    1281
    1282    1286    1287    1290    1280    1281    1282    1287    1288    1290
    1291    1292    1278    1279    1283    1284    1285    1289    1283    1284
    1283    1284    1285    1289    1281    1286    1287    1288    1290    1293
    1294    1282    1286    1287    1288    1290    1291    1292    1293    1294
    1295    1287    1288    1284    1285    1289    1289    1289    1287    1290
    1288    1290    1291    1292    1293    1294    1296    1290    1291    1292
    1293    1295    1296       0    1291    1293    1294    1295    1296    1292
    1293    1294    1295    1296    1293    1295    1294    1295    1296    1296
    1296       0    1298    1299    1300    1301    1302    1303    1304    1305
    1306    1307    1308    1309    1310    1311    1312    1299    1300    1301
    1302    1303    1304    1305    1306    1307    1308    1313    1314    1315
    1300    1301    1302    1303    1304    1305    1306    1308    1309    1310
    1311    1315    1316    1301    1302    1303    1304    1305    1306    1311
    1312    1316    1317    1318    1302    1303    1307    1308    1309    1313
    1314    1315    1319    1320    1321    1307    1308    1304    1307    1308
    1309    1310    1311    1315    1319    1321    1305    1308    1309    1310
    1311    1312    1316    1322    1323    1306    1310    1311    1312    1316
    1317    1318    1322    1323    1324    1311    1312    1308    1313    1314
    1315    1319    1320    1325    1309    1313    1314    1315    1319    1321
    1325    1315    1311    1316    1312    1316    1317    1318    1322    1323
    1326    1316    1317    1318    1323    1324    1326    1327    1328    1314
    1315    1319    1320    1321    1325    1319    1320    1319    1320    1321
    1325    1317    1322    1323    1324    1326    1329    1330    1318    1322
    1323    1324    1326    1327    1328    1329    1330    1331    1323    1324
    1320    1321    1325    1325    1325    1323    1326    1324    1326    1327
    1328    1329    1330    1332    1326    1327    1328    1329    1331    1332
       0    1327    1329    1330    1331    1332    1328    1329    1330    1331
    1332    1329    1331    1330    1331    1332    1332    1332       0    1334
    1335    1336    1337    1338    1339    1340    1341    1342    1343    1344
    1345    1346    1347    1348    1335    1336    1337    1338    1339    1340
    1341    1342    1343    1344    1349    1350    1351    1336    1337    1338
    1339    1340    1341    1342    1344    1345    1346    1347    1351    1352
    1337    1338    1339    1340    1341    1342    1347    1348    1352    1353
    1354    1338    1339    1343    1344    1345    1349    1350    1351    1355
    1356    1357    1343    1344    1340    1343    1344    1345    1346    1347
    1351    1355    1357    1341    1344    1345    1346    1347    1348    1352
    1358    1359    1342    1346    1347    1348    1352    1353    1354    1358
    1359    1360    1347    1348    1344    1349    1350    1351    1355    1356
    1361    1345    1349    1350    1351    1355    1357    1361    1351    1347
    1352    1348    1352    1353    1354    1358    1359    1362    1352    1353
    1354    1359    1360    1362    1363    1364    1350    1351    1355    1356
    1357    1361    1355    1356    1355    1356    1357    1361    1353    1358
    1359    1360    1362    1365    1366    1354    1358    1359    1360    1362
    1363    1364    1365    1366    1367    1359    1360    1356    1357    1361
    1361    1361    1359    1362    1360    1362    1363    1364    1365    1366
    1368    1362    1363    1364    1365    1367    1368       0    1363    1365
    1366    1367    1368    1364    1365    1366    1367    1368    1365    1367
    1366    1367    1368    1368    1368       0    1370    1371    1372    1373
    1374    1375    1376    1377    1378    1379    1380    1381    1382    1383
    1384    1371    1372    1373    1374    1375    1376    1377    1378    1379
    1380    1385    1386    1387    1372    1373    1374    1375    1376    1377
    1378    1380    1381    1382    1383    1387    1388    1373    1374    1375
    1376    1377    1378    1383    1384    1388    1389    1390    1374    1375
    1379    1380    1381    1385    1386    1387    1391    1392    1393    1379
    1380    1376    1379    1380    1381    1382    1383    1387    1391    1393
    1377    1380    1381    1382    1383    1384    1388    1394    1395    1378
    1382    1383    1384    1388    1389    1390    1394    1395    1396    1383
    1384    1380    1385    1386    1387    1391    1392    1397    1381    1385
    1386    1387    1391    1393    1397    1387    1383    1388    1384    1388
    1389    1390    1394    1395    1398    1388    1389    1390    1395    1396
    1398    1399    1400    1386    1387    1391    1392    1393    1397    1391
    1392    1391    1392    1393    1397    1389    1394    1395    1396    1398
    1401    1402    1390    1394    1395    1396    1398    1399    1400    1401
    1402    1403    1395    1396    1392    1393    1397    1397    1397    1395
    1398    1396    1398    1399    1400    1401    1402    1404    1398    1399
    1400    1401    1403    1404       0    1399    1401    1402    1403    1404
    1400    1401    1402    1403    1404    1401    1403    1402    1403    1404
    1404    1404       0    1406    1407    1408    1409    1410    1411    1412
    1413    1414    1415    1416    1417    1418    1419    1420    1407    1408
    1409    1410    1411    1412    1413    1414    1415    1416    1421    1422
    1423    1408    1409    1410    1411    1412    1413    1414    1416    1417
    1418    1419    1423    1424    1409    1410    1411    1412    1413    1414
    1419    1420    1424    1425    1426    1410    1411    1415    1416    1417
    1421    1422    1423    1427    1428    1429    1415    1416    1412    1415
    1416    1417    1418    1419    1423    1427    1429    1413    1416    1417
    1418    1419    1420    1424    1430    1431    1414    1418    1419    1420
    1424    1425    1426    1430    1431    1432    1419    1420    1416    1421
    1422    1423    1427    1428    1433    1417    1421    1422    1423    1427
    1429    1433    1423    1419    1424    1420    1424    1425    1426    1430
    1431    1434    1424    1425    1426    1431    1432    1434    1435    1436
    1422    1423    1427    1428    1429    1433    1427    1428    1427    1428
    1429    1433    1425    1430    1431    1432    1434    1437    1438    1426
    1430    1431    1432    1434    1435    1436    1437    1438    1439    1431
    1432    1428    1429    1433    1433    1433    1431    1434    1432    1434
    1435    1436    1437    1438    1440    1434    1435    1436    1437    1439
    1440       0    1435    1437    1438    1439    1440    1436    1437    1438
    1439    1440    1437    1439    1438    1439    1440    1440    1440       0
    1442    1443    1444    1445    1446    1447    1448    1449    1450    1451
    1452    1453    1454    1455    1456    1443    1444    1445    1446    1447
    1448    1449    1450    1451    1452    1457    1458    1459    1444    1445
    1446    1447    1448    1449    1450    1452    1453    1454    1455    1459
    1460    1445    1446    1447    1448    1449    1450    1455    1456    1460
    1461    1462    1446    1447    1451    1452    1453    1457    1458    1459
    1463    1464    1465    1451    1452    1448    1451    1452    1453    1454
    1455    1459    1463    1465    1449    1452    1453    1454    1455    1456
    1460    1466    1467    1450    1454    1455    1456    1460    1461    1462
    1466    1467    1468    1455    1456    1452    1457    1458    1459    1463
    1464    1469    1453    1457    1458    1459    1463    1465    1469    1459
    1455    1460    1456    1460    1461    1462    1466    1467    1470    1460
    1461    1462    1467    1468    1470    1471    1472    1458    1459    1463
    1464    1465    1469    1463    1464    1463    1464    1465    1469    1461
    1466    1467    1468    1470    1473    1474    1462    1466    1467    1468
    1470    1471    1472    1473    1474    1475    1467    1468    1464    1465
    1469    1469    1469    1467    1470    1468    1470    1471    1472    1473
    1474    1476    1470    1471    1472    1473    1475    1476       0    1471
    1473    1474    1475    1476    1472    1473    1474    1475    1476    1473
    1475    1474    1475    1476    1476    1476       0    1478    1479    1480
    1481    1482    1483    1484    1485    1486    1487    1488    1489    1490
    1491    1492    1479    1480    1481    1482    1483    1484    1485    1486
    1487    1488    1493    1494    1495    1480    1481    1482    1483    1484
    1485    1486    1488    1489    1490    1491    1495    1496    1481    1482
    1483    1484    1485    1486    1491    1492    1496    1497    1498    1482
    1483    1487    1488    1489    1493    1494    1495    1499    1500    1501
    1487    1488    1484    1487    1488    1489    1490    1491    1495    1499
    1501    1485    1488    1489    1490    1491    1492    1496    1502    1503
    1486    1490    1491    1492    1496    1497    1498    1502    1503    1504
    1491    1492    1488    1493    1494    1495    1499    1500    1505    1489
    1493    1494    1495    1499    1501    1505    1495    1491    1496    1492
    1496    1497    1498    1502    1503    1506    1496    1497    1498    1503
    1504    1506    1507    1508    1494    1495    1499    1500    1501    1505
    1499    1500    1499    1500    1501    1505    1497    1502    1503    1504
    1506    1509    1510    1498    1502    1503    1504    1506    1507    1508
    1509    1510    1511    1503    1504    1500    1501    1505    1505    1505
    1503    1506    1504    1506    1507    1508    1509    1510    1512    1506
    1507    1508    1509    1511    1512       0    1507    1509    1510    1511
    1512    1508    1509    1510    1511    1512    1509    1511    1510    1511
    1512    1512    1512       0    1514    1515    1516    1517    1518    1519
    1520    1521    1522    1523    1524    1525    1526    1527    1528    1515
    1516    1517    1518    1519    1520    1521    1522    1523    1524    1529
    1530    1531    1516    1517    1518    1519    1520    1521    1522    1524
    1525    1526    1527    1531    1532    1517    1518    1519    1520    1521
    1522    1527    1528    1532    1533    1534    1518    1519    1523    1524
    1525    1529    1530    1531    1535    1536    1537    1523    1524    1520
    1523    1524    1525    1526    1527    1531    1535    1537    1521    1524
    1525    1526    1527    1528    1532    1538    1539    1522    1526    1527
    1528    1532    1533    1534    1538    1539    1540    1527    1528    1524
    1529    1530    1531    1535    1536    1541    1525    1529    1530    1531
    1535    1537    1541    1531    1527    1532    1528    1532    1533    1534
    1538    1539    1542    1532    1533    1534    1539    1540    1542    1543
    1544    1530    1531    1535    1536    1537    1541    1535    1536    1535
    1536    1537    1541    1533    1538    1539    1540    1542    1545    1546
    1534    1538    1539    1540    1542    1543    1544    1545    1546    1547
    1539    1540    1536    1537    1541    1541    1541    1539    1542    1540
    1542    1543    1544    1545    1546    1548    1542    1543    1544    1545
    1547    1548       0    1543    1545    1546    1547    1548    1544    1545
    1546    1547    1548    1545    1547    1546    1547    1548    1548    1548
       0    1550    1551    1552    1553    1554    1555    1556    1557    1558
    1559    1560    1561    1562    1563    1564    1551    1552    1553    1554
    1555    1556    1557    1558    1559    1560    1565    1566    1567    1552
    1553    1554    1555    1556    1557    1558    1560    1561    1562    1563
    1567    1568    1553    1554    1555    1556    1557    1558    1563    1564
    1568    1569    1570    1554    1555    1559    1560    1561    1565    1566
    1567    1571    1572    1573    1559    1560    1556    1559    1560    1561
    1562    1563    1567    1571    1573    1557    1560    1561    1562    1563
    1564    1568    1574    1575    1558    1562    1563    1564    1568    1569
    1570    1574    1575    1576    1563    1564    1560    1565    1566    1567
    1571    1572    1577    1561    1565    1566    1567    1571    1573    1577
    1567    1563    1568    1564    1568    1569    1570    1574    1575    1578
    1568    1569    1570    1575    1576    1578    1579    1580    1566    1567
    1571    1572    1573    1577    1571    1572    1571    1572    1573    1577
    1569    1574    1575    1576    1578    1581    1582    1570    1574    1575
    1576    1578    1579    1580    1581    1582    1583    1575    1576    1572
    1573    1577    1577    1577    1575    1578    1576    1578    1579    1580
    1581    1582    1584    1578    1579    1580    1581    1583    1584       0
    1579    1581    1582    1583    1584    1580    1581    1582    1583    1584
    1581    1583    1582    1583    1584    1584    1584       0    1586    1587
    1588    1589    1590    1591    1592    1593    1594    1595    1596    1597
    1598    1599    1600    1587    1588    1589    1590    1591    1592    1593
    1594    1595    1596    1601    1602    1603    1588    1589    1590    1591
    1592    1593    1594    1596    1597    1598    1599    1603    1604    1589
    1590    1591    1592    1593    1594    1599    1600    1604    1605    1606
    1590    1591    1595    1596    1597    1601    1602    1603    1607    1608
    1609    1595    1596    1592    1595    1596    1597    1598    1599    1603
    1607    1609    1593    1596    1597    1598    1599    1600    1604    1610
    1611    1594    1598    1599    1600    1604    1605    1606    1610    1611
    1612    1599    1600    1596    1601    1602    1603    1607    1608    1613
    1597    1601    1602    1603    1607    1609    1613    1603    1599    1604
    1600    1604    1605    1606    1610    1611    1614    1604    1605    1606
    1611    1612    1614    1615    1616    1602    1603    1607    1608    1609
    1613    1607    1608    1607    1608    1609    1613    1605    1610    1611
    1612    1614    1617    1618    1606    1610    1611    1612    1614    1615
    1616    1617    1618    1619    1611    1612    1608    1609    1613    1613
    1613    1611    1614    1612    1614    1615    1616    1617    1618    1620
    1614    1615    1616    1617    1619    1620       0    1615    1617    1618
    1619    1620    1616    1617    1618    1619    1620    1617    1619    1618
    1619    1620    1620    1620       0    1622    1623    1624    1625    1626
    1627    1628    1629    1630    1631    1632    1633    1634    1635    1636
    1623    1624    1625    1626    1627    1628    1629    1630    1631    1632
    1637    1638    1639    1624    1625    1626    1627    1628    1629    1630
    1632    1633    1634    1635    1639    1640    1625    1626    1627    1628
    1629    1630    1635    1636    1640    1641    1642    1626    1627    1631
    1632    1633    1637    1638    1639    1643    1644    1645    1631    1632
    1628    1631    1632    1633    1634    1635    1639    1643    1645    1629
    1632    1633    1634    1635    1636    1640    1646    1647    1630    1634
    1635    1636    1640    1641    1642    1646    1647    1648    1635    1636
    1632    1637    1638    1639    1643    1644    1649    1633    1637    1638
    1639    1643    1645    1649    1639    1635    1640    1636    1640    1641
    1642    1646    1647    1650    1640    1641    1642    1647    1648    1650
    1651    1652    1638    1639    1643    1644    1645    1649    1643    1644
    1643    1644    1645    1649    1641    1646    1647    1648    1650    1653
    1654    1642    1646    1647    1648    1650    1651    1652    1653    1654
    1655    1647    1648    1644    1645    1649    1649    1649    1647    1650
    1648    1650    1651    1652    1653    1654    1656    1650    1651    1652
    1653    1655    1656       0    1651    1653    1654    1655    1656    1652
    1653    1654    1655    1656    1653    1655    1654    1655    1656    1656
    1656       0    1658    1659    1660    1661    1662    1663    1664    1665
    1666    1667    1668    1669    1670    1671    1672    1659    1660    1661
    1662    1663    1664    1665    1666    1667    1668    1673    1674    1675
    1660    1661    1662    1663    1664    1665    1666    1668    1669    1670
    1671    1675    1676    1661    1662    1663    1664    1665    1666    1671
    1672    1676    1677    1678    1662    1663    1667    1668    1669    1673
    1674    1675    1679    1680    1681    1667    1668    1664    1667    1668
    1669    1670    1671    1675    1679    1681    1665    1668    1669    1670
    1671    1672    1676    1682    1683    1666    1670    1671    1672    1676
    1677    1678    1682    1683    1684    1671    1672    1668    1673    1674
    1675    1679    1680    1685    1669    1673    1674    1675    1679    1681
    1685    1675    1671    1676    1672    1676    1677    1678    1682    1683
    1686    1676    1677    1678    1683    1684    1686    1687    1688    1674
    1675    1679    1680    1681    1685    1679    1680    1679    1680    1681
    1685    1677    1682    1683    1684    1686    1689    1690    1678    1682
    1683    1684    1686    1687    1688    1689    1690    1691    1683    1684
    1680    1681    1685    1685    1685    1683    1686    1684    1686    1687
    1688    1689    1690    1692    1686    1687    1688    1689    1691    1692
       0    1687    1689    1690    1691    1692    1688    1689    1690    1691
    1692    1689    1691    1690    1691    1692    1692    1692       0    1694
    1695    1696    1697    1698    1699    1700    1701    1702    1703    1704
    1705    1706    1707    1708    1695    1696    1697    1698    1699    1700
    1701    1702    1703    1704    1709    1710    1711    1696    1697    1698
    1699    1700    1701    1702    1704    1705    1706    1707    1711    1712
    1697    1698    1699    1700    1701    1702    1707    1708    1712    1713
    1714    1698    1699    1703    1704    1705    1709    1710    1711    1715
    1716    1717    1703    1704    1700    1703    1704    1705    1706    1707
    1711    1715    1717    1701    1704    1705    1706    1707    1708    1712
    1718    1719    1702    1706    1707    1708    1712    1713    1714    1718
    1719    1720    1707    1708    1704    1709    1710    1711    1715    1716
    1721    1705    1709    1710    1711    1715    1717    1721    1711    1707
    1712    1708    1712    1713    1714    1718    1719    1722    1712    1713
    1714    1719    1720    1722    1723    1724    1710    1711    1715    1716
    1717    1721    1715    1716    1715    1716    1717    1721    1713    1718
    1719    1720    1722    1725    1726    1714    1718    1719    1720    1722
    1723    1724    1725    1726    1727    1719    1720    1716    1717    1721
    1721    1721    1719    1722    1720    1722    1723    1724    1725    1726
    1728    1722    1723    1724    1725    1727    1728       0    1723    1725
    1726    1727    1728    1724    1725    1726    1727    1728    1725    1727
    1726    1727    1728    1728    1728       0    1730    1731    1732    1733
    1734    1735    1736    1737    1738    1739    1740    1741    1742    1743
    1744    1731    1732    1733    1734    1735    1736    1737    1738    1739
    1740    1745    1746    1747    1732    1733    1734    1735    1736    1737
    1738    1740    1741    1742    1743    1747    1748    1733    1734    1735
    1736    1737    1738    1743    1744    1748    1749    1750    1734    1735
    1739    1740    1741    1745    1746    1747    1751    1752    1753    1739
    1740    1736    1739    1740    1741    1742    1743    1747    1751    1753
    1737    1740    1741    1742    1743    1744    1748    1754    1755    1738
    1742    1743    1744    1748    1749    1750    1754    1755    1756    1743
    1744    1740    1745    1746    1747    1751    1752    1757    1741    1745
    1746    1747    1751    1753    1757    1747    1743    1748    1744    1748
    1749    1750    1754    1755    1758    1748    1749    1750    1755    1756
    1758    1759    1760    1746    1747    1751    1752    1753    1757    1751
    1752    1751    1752    1753    1757    1749    1754    1755    1756    1758
    1761    1762    1750    1754    1755    1756    1758    1759    1760    1761
    1762    1763    1755    1756    1752    1753    1757    1757    1757    1755
    1758    1756    1758    1759    1760    1761    1762    1764    1758    1759
    1760    1761    1763    1764       0    1759    1761    1762    1763    1764
    1760    1761    1762    1763    1764    1761    1763    1762    1763    1764
    1764    1764       0    1766    1767    1768    1769    1770    1771    1772
    1773    1774    1775    1776    1777    1778    1779    1780    1767    1768
    1769    1770    1771    1772    1773    1774    1775    1776    1781    1782
    1783    1768    1769    1770    1771    1772    1773    1774    1776    1777
    1778    1779    1783    1784    1769    1770    1771    1772    1773    1774
    1779    1780    1784    1785    1786    1770    1771    1775    1776    1777
    1781    1782    1783    1787    1788    1789    1775    1776    1772    1775
    1776    1777    1778    1779    1783    1787    1789    1773    1776    1777
    1778    1779    1780    1784    1790    1791    1774    1778    1779    1780
    1784    1785    1786    1790    1791    1792    1779    1780    1776    1781
    1782    1783    1787    1788    1793    1777    1781    1782    1783    1787
    1789    1793    1783    1779    1784    1780    1784    1785    1786    1790
    1791    1794    1784    1785    1786    1791    1792    1794    1795    1796
    1782    1783    1787    1788    1789    1793    1787    1788    1787    1788
    1789    1793    1785    1790    1791    1792    1794    1797    1798    1786
    1790    1791    1792    1794    1795    1796    1797    1798    1799    1791
    1792    1788    1789    1793    1793    1793    1791    1794    1792    1794
    1795    1796    1797    1798    1800    1794    1795    1796    1797    1799
    1800       0    1795    1797    1798    1799    1800    1796    1797    1798
    1799    1800    1797    1799    1798    1799    1800    1800    1800       0
    1802    1803    1804    1805    1806    1807    1808    1809    1810    1811
    1812    1813    1814    1815    1816    1803    1804    1805    1806    1807
    1808    1809    1810    1811    1812    1817    1818    1819    1804    1805
    1806    1807    1808    1809    1810    1812    1813    1814    1815    1819
    1820    1805    1806    1807    1808    1809    1810    1815    1816    1820
    1821    1822    1806    1807    1811    1812    1813    1817    1818    1819
    1823    1824    1825    1811    1812    1808    1811    1812    1813    1814
    1815    1819    1823    1825    1809    1812    1813    1814    1815    1816
    1820    1826    1827    1810    1814    1815    1816    1820    1821    1822
    1826    1827    1828    1815    1816    1812    1817    1818    1819    1823
    1824    1829    1813    1817    1818    1819    1823    1825    1829    1819
    1815    1820    1816    1820    1821    1822    1826    1827    1830    1820
    1821    1822    1827    1828    1830    1831    1832    1818    1819    1823
    1824    1825    1829    1823    1824    1823    1824    1825    1829    1821
    1826    1827    1828    1830    1833    1834    1822    1826    1827    1828
    1830    1831    1832    1833    1834    1835    1827    1828    1824    1825
    1829    1829    1829    1827    1830    1828    1830    1831    1832    1833
    1834    1836    1830    1831    1832    1833    1835    1836       0    1831
    1833    1834    1835    1836    1832    1833    1834    1835    1836    1833
    1835    1834    1835    1836    1836    1836       0    1838    1839    1840
    1841    1842    1843    1844    1845    1846    1847    1848    1849    1850
    1851    1852    1839    1840    1841    1842    1843    1844    1845    1846
    1847    1848    1853    1854    1855    1840    1841    1842    1843    1844
    1845    1846    1848    1849    1850    1851    1855    1856    1841    1842
    1843    1844    1845    1846    1851    1852    1856    1857    1858    1842
    1843    1847    1848    1849    1853    1854    1855    1859    1860    1861
    1847    1848    1844    1847    1848    1849    1850    1851    1855    1859
    1861    1845    1848    1849    1850    1851    1852    1856    1862    1863
    1846    1850    1851    1852    1856    1857    1858    1862    1863    1864
    1851    1852    1848    1853    1854    1855    1859    1860    1865    1849
    1853    1854    1855    1859    1861    1865    1855    1851    1856    1852
    1856    1857    1858    1862    1863    1866    1856    1857    1858    1863
    1864    1866    1867    1868    1854    1855    1859    1860    1861    1865
    1859    1860    1859    1860    1861    1865    1857    1862    1863    1864
    1866    1869    1870    1858    1862    1863    1864    1866    1867    1868
    1869    1870    1871    1863    1864    1860    1861    1865    1865    1865
    1863    1866    1864    1866    1867    1868    1869    1870    1872    1866
    1867    1868    1869    1871    1872       0    1867    1869    1870    1871
    1872    1868    1869    1870    1871    1872    1869    1871    1870    1871
    1872    1872    1872       0    1874    1875    1876    1877    1878    1879
    1880    1881    1882    1883    1884    1885    1886    1887    1888    1875
    1876    1877    1878    1879    1880    1881    1882    1883    1884    1889
    1890    1891    1876    1877    1878    1879    1880    1881    1882    1884
    1885    1886    1887    1891    1892    1877    1878    1879    1880    1881
    1882    1887    1888    1892    1893    1894    1878    1879    1883    1884
    1885    1889    1890    1891    1895    1896    1897    1883    1884    1880
    1883    1884    1885    1886    1887    1891    1895    1897    1881    1884
    1885    1886    1887    1888    1892    1898    1899    1882    1886    1887
    1888    1892    1893    1894    1898    1899    1900    1887    1888    1884
    1889    1890    1891    1895    1896    1901    1885    1889    1890    1891
    1895    1897    1901    1891    1887    1892    1888    1892    1893    1894
    1898    1899    1902    1892    1893    1894    1899    1900    1902    1903
    1904    1890    1891    1895    1896    1897    1901    1895    1896    1895
    1896    1897    1901    1893    1898    1899    1900    1902    1905    1906
    1894    1898    1899    1900    1902    1903    1904    1905    1906    1907
    1899    1900    1896    1897    1901    1901    1901    1899    1902    1900
    1902    1903    1904    1905    1906    1908    1902    1903    1904    1905
    1907    1908       0    1903    1905    1906    1907    1908    1904    1905
    1906    1907    1908    1905    1907    1906    1907    1908    1908    1908
       0    1910    1911    1912    1913    1914    1915    1916    1917    1918
    1919    1920    1921    1922    1923    1924    1911    1912    1913    1914
    1915    1916    1917    1918    1919    1920    1925    1926    1927    1912
    1913    1914    1915    1916    1917    1918    1920    1921    1922    1923
    1927    1928    1913    1914    1915    1916    1917    1918    1923    1924
    1928    1929    1930    1914    1915    1919    1920    1921    1925    1926
    1927    1931    1932    1933    1919    1920    1916    1919    1920    1921
    1922    1923    1927    1931    1933    1917    1920    1921    1922    1923
    1924    1928    1934    1935    1918    1922    1923    1924    1928    1929
    1930    1934    1935    1936    1923    1924    1920    1925    1926    1927
    1931    1932    1937    1921    1925    1926    1927    1931    1933    1937
    1927    1923    1928    1924    1928    1929    1930    1934    1935    1938
    1928    1929    1930    1935    1936    1938    1939    1940    1926    1927
    1931    1932    1933    1937    1931    1932    1931    1932    1933    1937
    1929    1934    1935    1936    1938    1941    1942    1930    1934    1935
    1936    1938    1939    1940    1941    1942    1943    1935    1936    1932
    1933    1937    1937    1937    1935    1938    1936    1938    1939    1940
    1941    1942    1944    1938    1939    1940    1941    1943    1944       0
    1939    1941    1942    1943    1944    1940    1941    1942    1943    1944
    1941    1943    1942    1943    1944    1944    1944       0
%FLAG HBOND_ACOEF                                                               
%FORMAT(5E16.8)                                                                 

%FLAG HBOND_BCOEF                                                               
%FORMAT(5E16.8)                                                                 

%FLAG HBCUT                                                                     
%FORMAT(5E16.8)                                                                 

%FLAG AMBER_ATOM_TYPE                                                           
%FORMAT(20a4)                                                                   
ca  ca  ca  ca  ca  ha  ca  ca  ca  ha  ca  ca  ha  ha  ca  ca  ca  ha  ca  ca  
ca  ha  ca  ha  ha  ha  ca  ca  ha  ca  ca  ha  ca  ha  ha  ha  ca  ca  ca  ca  
ca  ha  ca  ca  ca  ha  ca  ca  ha  ha  ca  ca  ca  ha  ca  ca  ca  ha  ca  ha  
ha  ha  ca  ca  ha  ca  ca  ha  ca  ha  ha  ha  ca  ca  ca  ca  ca  ha  ca  ca  
ca  ha  ca  ca  ha  ha  ca  ca  ca  ha  ca  ca  ca  ha  ca  ha  ha  ha  ca  ca  
ha  ca  ca  ha  ca  ha  ha  ha  ca  ca  ca  ca  ca  ha  ca  ca  ca  ha  ca  ca  
ha  ha  ca  ca  ca  ha  ca  ca  ca  ha  ca  ha  ha  ha  ca  ca  ha  ca  ca  ha  
ca  ha  ha  ha  ca  ca  ca  ca  ca  ha  ca  ca  ca  ha  ca  ca  ha  ha  ca  ca  
ca  ha  ca  ca  ca  ha  ca  ha  ha  ha  ca  ca  ha  ca  ca  ha  ca  ha  ha  ha  
ca  ca  ca  ca  ca  ha  ca  ca  ca  ha  ca  ca  ha  ha  ca  ca  ca  ha  ca  ca  
ca  ha  ca  ha  ha  ha  ca  ca  ha  ca  ca  ha  ca  ha  ha  ha  ca  ca  ca  ca  
ca  ha  ca  ca  ca  ha  ca  ca  ha  ha  ca  ca  ca  ha  ca  ca  ca  ha  ca  ha  
ha  ha  ca  ca  ha  ca  ca  ha  ca  ha  ha  ha  ca  ca  ca  ca  ca  ha  ca  ca  
ca  ha  ca  ca  ha  ha  ca  ca  ca  ha  ca  ca  ca  ha  ca  ha  ha  ha  ca  ca  
ha  ca  ca  ha  ca  ha  ha  ha  ca  ca  ca  ca  ca  ha  ca  ca  ca  ha  ca  ca  
ha  ha  ca  ca  ca  ha  ca  ca  ca  ha  ca  ha  ha  ha  ca  ca  ha  ca  ca  ha  
ca  ha  ha  ha  ca  ca  ca  ca  ca  ha  ca  ca  ca  ha  ca  ca  ha  ha  ca  ca  
ca  ha  ca  ca  ca  ha  ca  ha  ha  ha  ca  ca  ha  ca  ca  ha  ca  ha  ha  ha  
ca  ca  ca  ca  ca  ha  ca  ca  ca  ha  ca  ca  ha  ha  ca  ca  ca  ha  ca  ca  
ca  ha  ca  ha  ha  ha  ca  ca  ha  ca  ca  ha  ca  ha  ha  ha  ca  ca  ca  ca  
ca  ha  ca  ca  ca  ha  ca  ca  ha  ha  ca  ca  ca  ha  ca  ca  ca  ha  ca  ha  
ha  ha  ca  ca  ha  ca  ca  ha  ca  ha  ha  ha  ca  ca  ca  ca  ca  ha  ca  ca  
ca  ha  ca  ca  ha  ha  ca  ca  ca  ha  ca  ca  ca  ha  ca  ha  ha  ha  ca  ca  
ha  ca  ca  ha  ca  ha  ha  ha  ca  ca  ca  ca  ca  ha  ca  ca  ca  ha  ca  ca  
ha  ha  ca  ca  ca  ha  ca  ca  ca  ha  ca  ha  ha  ha  ca  ca  ha  ca  ca  ha  
ca  ha  ha  ha  ca  ca  ca  ca  ca  ha  ca  ca  ca  ha  ca  ca  ha  ha  ca  ca  
ca  ha  ca  ca  ca  ha  ca  ha  ha  ha  ca  ca  ha  ca  ca  ha  ca  ha  ha  ha  
ca  ca  ca  ca  ca  ha  ca  ca  ca  ha  ca  ca  ha  ha  ca  ca  ca  ha  ca  ca  
ca  ha  ca  ha  ha  ha  ca  ca  ha  ca  ca  ha  ca  ha  ha  ha  ca  ca  ca  ca  
ca  ha  ca  ca  ca  ha  ca  ca  ha  ha  ca  ca  ca  ha  ca  ca  ca  ha  ca  ha  
ha  ha  ca  ca  ha  ca  ca  ha  ca  ha  ha  ha  ca  ca  ca  ca  ca  ha  ca  ca  
ca  ha  ca  ca  ha  ha  ca  ca  ca  ha  ca  ca  ca  ha  ca  ha  ha  ha  ca  ca  
ha  ca  ca  ha  ca  ha  ha  ha  ca  ca  ca  ca  ca  ha  ca  ca  ca  ha  ca  ca  
ha  ha  ca  ca  ca  ha  ca  ca  ca  ha  ca  ha  ha  ha  ca  ca  ha  ca  ca  ha  
ca  ha  ha  ha  ca  ca  ca  ca  ca  ha  ca  ca  ca  ha  ca  ca  ha  ha  ca  ca  
ca  ha  ca  ca  ca  ha  ca  ha  ha  ha  ca  ca  ha  ca  ca  ha  ca  ha  ha  ha  
ca  ca  ca  ca  ca  ha  ca  ca  ca  ha  ca  ca  ha  ha  ca  ca  ca  ha  ca  ca  
ca  ha  ca  ha  ha  ha  ca  ca  ha  ca  ca  ha  ca  ha  ha  ha  ca  ca  ca  ca  
ca  ha  ca  ca  ca  ha  ca  ca  ha  ha  ca  ca  ca  ha  ca  ca  ca  ha  ca  ha  
ha  ha  ca  ca  ha  ca  ca  ha  ca  ha  ha  ha  ca  ca  ca  ca  ca  ha  ca  ca  
ca  ha  ca  ca  ha  ha  ca  ca  ca  ha  ca  ca  ca  ha  ca  ha  ha  ha  ca  ca  
ha  ca  ca  ha  ca  ha  ha  ha  ca  ca  ca  ca  ca  ha  ca  ca  ca  ha  ca  ca  
ha  ha  ca  ca  ca  ha  ca  ca  ca  ha  ca  ha  ha  ha  ca  ca  ha  ca  ca  ha  
ca  ha  ha  ha  ca  ca  ca  ca  ca  ha  ca  ca  ca  ha  ca  ca  ha  ha  ca  ca  
ca  ha  ca  ca  ca  ha  ca  ha  ha  ha  ca  ca  ha  ca  ca  ha  ca  ha  ha  ha  
ca  ca  ca  ca  ca  ha  ca  ca  ca  ha  ca  ca  ha  ha  ca  ca  ca  ha  ca  ca  
ca  ha  ca  ha  ha  ha  ca  ca  ha  ca  ca  ha  ca  ha  ha  ha  ca  ca  ca  ca  
ca  ha  ca  ca  ca  ha  ca  ca  ha  ha  ca  ca  ca  ha  ca  ca  ca  ha  ca  ha  
ha  ha  ca  ca  ha  ca  ca  ha  ca  ha  ha  ha  ca  ca  ca  ca  ca  ha  ca  ca  
ca  ha  ca  ca  ha  ha  ca  ca  ca  ha  ca  ca  ca  ha  ca  ha  ha  ha  ca  ca  
ha  ca  ca  ha  ca  ha  ha  ha  ca  ca  ca  ca  ca  ha  ca  ca  ca  ha  ca  ca  
ha  ha  ca  ca  ca  ha  ca  ca  ca  ha  ca  ha  ha  ha  ca  ca  ha  ca  ca  ha  
ca  ha  ha  ha  ca  ca  ca  ca  ca  ha  ca  ca  ca  ha  ca  ca  ha  ha  ca  ca  
ca  ha  ca  ca  ca  ha  ca  ha  ha  ha  ca  ca  ha  ca  ca  ha  ca  ha  ha  ha  
ca  ca  ca  ca  ca  ha  ca  ca  ca  ha  ca  ca  ha  ha  ca  ca  ca  ha  ca  ca  
ca  ha  ca  ha  ha  ha  ca  ca  ha  ca  ca  ha  ca  ha  ha  ha  ca  ca  ca  ca  
ca  ha  ca  ca  ca  ha  ca  ca  ha  ha  ca  ca  ca  ha  ca  ca  ca  ha  ca  ha  
ha  ha  ca  ca  ha  ca  ca  ha  ca  ha  ha  ha  ca  ca  ca  ca  ca  ha  ca  ca  
ca  ha  ca  ca  ha  ha  ca  ca  ca  ha  ca  ca  ca  ha  ca  ha  ha  ha  ca  ca  
ha  ca  ca  ha  ca  ha  ha  ha  ca  ca  ca  ca  ca  ha  ca  ca  ca  ha  ca  ca  
ha  ha  ca  ca  ca  ha  ca  ca  ca  ha  ca  ha  ha  ha  ca  ca  ha  ca  ca  ha  
ca  ha  ha  ha  ca  ca  ca  ca  ca  ha  ca  ca  ca  ha  ca  ca  ha  ha  ca  ca  
ca  ha  ca  ca  ca  ha  ca  ha  ha  ha  ca  ca  ha  ca  ca  ha  ca  ha  ha  ha  
ca  ca  ca  ca  ca  ha  ca  ca  ca  ha  ca  ca  ha  ha  ca  ca  ca  ha  ca  ca  
ca  ha  ca  ha  ha  ha  ca  ca  ha  ca  ca  ha  ca  ha  ha  ha  ca  ca  ca  ca  
ca  ha  ca  ca  ca  ha  ca  ca  ha  ha  ca  ca  ca  ha  ca  ca  ca  ha  ca  ha  
ha  ha  ca  ca  ha  ca  ca  ha  ca  ha  ha  ha  ca  ca  ca  ca  ca  ha  ca  ca  
ca  ha  ca  ca  ha  ha  ca  ca  ca  ha  ca  ca  ca  ha  ca  ha  ha  ha  ca  ca  
ha  ca  ca  ha  ca  ha  ha  ha  ca  ca  ca  ca  ca  ha  ca  ca  ca  ha  ca  ca  
ha  ha  ca  ca  ca  ha  ca  ca  ca  ha  ca  ha  ha  ha  ca  ca  ha  ca  ca  ha  
ca  ha  ha  ha  ca  ca  ca  ca  ca  ha  ca  ca  ca  ha  ca  ca  ha  ha  ca  ca  
ca  ha  ca  ca  ca  ha  ca  ha  ha  ha  ca  ca  ha  ca  ca  ha  ca  ha  ha  ha  
ca  ca  ca  ca  ca  ha  ca  ca  ca  ha  ca  ca  ha  ha  ca  ca  ca  ha  ca  ca  
ca  ha  ca  ha  ha  ha  ca  ca  ha  ca  ca  ha  ca  ha  ha  ha  ca  ca  ca  ca  
ca  ha  ca  ca  ca  ha  ca  ca  ha  ha  ca  ca  ca  ha  ca  ca  ca  ha  ca  ha  
ha  ha  ca  ca  ha  ca  ca  ha  ca  ha  ha  ha  ca  ca  ca  ca  ca  ha  ca  ca  
ca  ha  ca  ca  ha  ha  ca  ca  ca  ha  ca  ca  ca  ha  ca  ha  ha  ha  ca  ca  
ha  ca  ca  ha  ca  ha  ha  ha  ca  ca  ca  ca  ca  ha  ca  ca  ca  ha  ca  ca  
ha  ha  ca  ca  ca  ha  ca  ca  ca  ha  ca  ha  ha  ha  ca  ca  ha  ca  ca  ha  
ca  ha  ha  ha  ca  ca  ca  ca  ca  ha  ca  ca  ca  ha  ca  ca  ha  ha  ca  ca  
ca  ha  ca  ca  ca  ha  ca  ha  ha  ha  ca  ca  ha  ca  ca  ha  ca  ha  ha  ha  
ca  ca  ca  ca  ca  ha  ca  ca  ca  ha  ca  ca  ha  ha  ca  ca  ca  ha  ca  ca  
ca  ha  ca  ha  ha  ha  ca  ca  ha  ca  ca  ha  ca  ha  ha  ha  ca  ca  ca  ca  
ca  ha  ca  ca  ca  ha  ca  ca  ha  ha  ca  ca  ca  ha  ca  ca  ca  ha  ca  ha  
ha  ha  ca  ca  ha  ca  ca  ha  ca  ha  ha  ha  ca  ca  ca  ca  ca  ha  ca  ca  
ca  ha  ca  ca  ha  ha  ca  ca  ca  ha  ca  ca  ca  ha  ca  ha  ha  ha  ca  ca  
ha  ca  ca  ha  ca  ha  ha  ha  ca  ca  ca  ca  ca  ha  ca  ca  ca  ha  ca  ca  
ha  ha  ca  ca  ca  ha  ca  ca  ca  ha  ca  ha  ha  ha  ca  ca  ha  ca  ca  ha  
ca  ha  ha  ha  ca  ca  ca  ca  ca  ha  ca  ca  ca  ha  ca  ca  ha  ha  ca  ca  
ca  ha  ca  ca  ca  ha  ca  ha  ha  ha  ca  ca  ha  ca  ca  ha  ca  ha  ha  ha  
ca  ca  ca  ca  ca  ha  ca  ca  ca  ha  ca  ca  ha  ha  ca  ca  ca  ha  ca  ca  
ca  ha  ca  ha  ha  ha  ca  ca  ha  ca  ca  ha  ca  ha  ha  ha  ca  ca  ca  ca  
ca  ha  ca  ca  ca  ha  ca  ca  ha  ha  ca  ca  ca  ha  ca  ca  ca  ha  ca  ha  
ha  ha  ca  ca  ha  ca  ca  ha  ca  ha  ha  ha  ca  ca  ca  ca  ca  ha  ca  ca  
ca  ha  ca  ca  ha  ha  ca  ca  ca  ha  ca  ca  ca  ha  ca  ha  ha  ha  ca  ca  
ha  ca  ca  ha  ca  ha  ha  ha  ca  ca  ca  ca  ca  ha  ca  ca  ca  ha  ca  ca  
ha  ha  ca  ca  ca  ha  ca  ca  ca  ha  ca  ha  ha  ha  ca  ca  ha  ca  ca  ha  
ca  ha  ha  ha  
%FLAG TREE_CHAIN_CLASSIFICATION                                                 
%FORMAT(20a4)                                                                   
BLA BLA BLA BLA BLA BLA BLA BLA BLA BLA BLA BLA BLA BLA BLA BLA BLA BLA BLA BLA 
BLA BLA BLA BLA BLA BLA BLA BLA BLA BLA BLA BLA BLA BLA BLA BLA BLA BLA BLA BLA 
BLA BLA BLA BLA BLA BLA BLA BLA BLA BLA BLA BLA BLA BLA BLA BLA BLA BLA BLA BLA 
BLA BLA BLA BLA BLA BLA BLA BLA BLA BLA BLA BLA BLA BLA BLA BLA BLA BLA BLA BLA 
BLA BLA BLA BLA BLA BLA BLA BLA BLA BLA BLA BLA BLA BLA BLA BLA BLA BLA BLA BLA 
BLA BLA BLA BLA BLA BLA BLA BLA BLA BLA BLA BLA BLA BLA BLA BLA BLA BLA BLA BLA 
BLA BLA BLA BLA BLA BLA BLA BLA BLA BLA BLA BLA BLA BLA BLA BLA BLA BLA BLA BLA 
BLA BLA BLA BLA BLA BLA BLA BLA BLA BLA BLA BLA BLA BLA BLA BLA BLA BLA BLA BLA 
BLA BLA BLA BLA BLA BLA BLA BLA BLA BLA BLA BLA BLA BLA BLA BLA BLA BLA BLA BLA 
BLA BLA BLA BLA BLA BLA BLA BLA BLA BLA BLA BLA BLA BLA BLA BLA BLA BLA BLA BLA 
BLA BLA BLA BLA BLA BLA BLA BLA BLA BLA BLA BLA BLA BLA BLA BLA BLA BLA BLA BLA 
BLA BLA BLA BLA BLA BLA BLA BLA BLA BLA BLA BLA BLA BLA BLA BLA BLA BLA BLA BLA 
BLA BLA BLA BLA BLA BLA BLA BLA BLA BLA BLA BLA BLA BLA BLA BLA BLA BLA BLA BLA 
BLA BLA BLA BLA BLA BLA BLA BLA BLA BLA BLA BLA BLA BLA BLA BLA BLA BLA BLA BLA 
BLA BLA BLA BLA BLA BLA BLA BLA BLA BLA BLA BLA BLA BLA BLA BLA BLA BLA BLA BLA 
BLA BLA BLA BLA BLA BLA BLA BLA BLA BLA BLA BLA BLA BLA BLA BLA BLA BLA BLA BLA 
BLA BLA BLA BLA BLA BLA BLA BLA BLA BLA BLA BLA BLA BLA BLA BLA BLA BLA BLA BLA 
BLA BLA BLA BLA BLA BLA BLA BLA BLA BLA BLA BLA BLA BLA BLA BLA BLA BLA BLA BLA 
BLA BLA BLA BLA BLA BLA BLA BLA BLA BLA BLA BLA BLA BLA BLA BLA BLA BLA BLA BLA 
BLA BLA BLA BLA BLA BLA BLA BLA BLA BLA BLA BLA BLA BLA BLA BLA BLA BLA BLA BLA 
BLA BLA BLA BLA BLA BLA BLA BLA BLA BLA BLA BLA BLA BLA BLA BLA BLA BLA BLA BLA 
BLA BLA BLA BLA BLA BLA BLA BLA BLA BLA BLA BLA BLA BLA BLA BLA BLA BLA BLA BLA 
BLA BLA BLA BLA BLA BLA BLA BLA BLA BLA BLA BLA BLA BLA BLA BLA BLA BLA BLA BLA 
BLA BLA BLA BLA BLA BLA BLA BLA BLA BLA BLA BLA BLA BLA BLA BLA BLA BLA BLA BLA 
BLA BLA BLA BLA BLA BLA BLA BLA BLA BLA BLA BLA BLA BLA BLA BLA BLA BLA BLA BLA 
BLA BLA BLA BLA BLA BLA BLA BLA BLA BLA BLA BLA BLA BLA BLA BLA BLA BLA BLA BLA 
BLA BLA BLA BLA BLA BLA BLA BLA BLA BLA BLA BLA BLA BLA BLA BLA BLA BLA BLA BLA 
BLA BLA BLA BLA BLA BLA BLA BLA BLA BLA BLA BLA BLA BLA BLA BLA BLA BLA BLA BLA 
BLA BLA BLA BLA BLA BLA BLA BLA BLA BLA BLA BLA BLA BLA BLA BLA BLA BLA BLA BLA 
BLA BLA BLA BLA BLA BLA BLA BLA BLA BLA BLA BLA BLA BLA BLA BLA BLA BLA BLA BLA 
BLA BLA BLA BLA BLA BLA BLA BLA BLA BLA BLA BLA BLA BLA BLA BLA BLA BLA BLA BLA 
BLA BLA BLA BLA BLA BLA BLA BLA BLA BLA BLA BLA BLA BLA BLA BLA BLA BLA BLA BLA 
BLA BLA BLA BLA BLA BLA BLA BLA BLA BLA BLA BLA BLA BLA BLA BLA BLA BLA BLA BLA 
BLA BLA BLA BLA BLA BLA BLA BLA BLA BLA BLA BLA BLA BLA BLA BLA BLA BLA BLA BLA 
BLA BLA BLA BLA BLA BLA BLA BLA BLA BLA BLA BLA BLA BLA BLA BLA BLA BLA BLA BLA 
BLA BLA BLA BLA BLA BLA BLA BLA BLA BLA BLA BLA BLA BLA BLA BLA BLA BLA BLA BLA 
BLA BLA BLA BLA BLA BLA BLA BLA BLA BLA BLA BLA BLA BLA BLA BLA BLA BLA BLA BLA 
BLA BLA BLA BLA BLA BLA BLA BLA BLA BLA BLA BLA BLA BLA BLA BLA BLA BLA BLA BLA 
BLA BLA BLA BLA BLA BLA BLA BLA BLA BLA BLA BLA BLA BLA BLA BLA BLA BLA BLA BLA 
BLA BLA BLA BLA BLA BLA BLA BLA BLA BLA BLA BLA BLA BLA BLA BLA BLA BLA BLA BLA 
BLA BLA BLA BLA BLA BLA BLA BLA BLA BLA BLA BLA BLA BLA BLA BLA BLA BLA BLA BLA 
BLA BLA BLA BLA BLA BLA BLA BLA BLA BLA BLA BLA BLA BLA BLA BLA BLA BLA BLA BLA 
BLA BLA BLA BLA BLA BLA BLA BLA BLA BLA BLA BLA BLA BLA BLA BLA BLA BLA BLA BLA 
BLA BLA BLA BLA BLA BLA BLA BLA BLA BLA BLA BLA BLA BLA BLA BLA BLA BLA BLA BLA 
BLA BLA BLA BLA BLA BLA BLA BLA BLA BLA BLA BLA BLA BLA BLA BLA BLA BLA BLA BLA 
BLA BLA BLA BLA BLA BLA BLA BLA BLA BLA BLA BLA BLA BLA BLA BLA BLA BLA BLA BLA 
BLA BLA BLA BLA BLA BLA BLA BLA BLA BLA BLA BLA BLA BLA BLA BLA BLA BLA BLA BLA 
BLA BLA BLA BLA BLA BLA BLA BLA BLA BLA BLA BLA BLA BLA BLA BLA BLA BLA BLA BLA 
BLA BLA BLA BLA BLA BLA BLA BLA BLA BLA BLA BLA BLA BLA BLA BLA BLA BLA BLA BLA 
BLA BLA BLA BLA BLA BLA BLA BLA BLA BLA BLA BLA BLA BLA BLA BLA BLA BLA BLA BLA 
BLA BLA BLA BLA BLA BLA BLA BLA BLA BLA BLA BLA BLA BLA BLA BLA BLA BLA BLA BLA 
BLA BLA BLA BLA BLA BLA BLA BLA BLA BLA BLA BLA BLA BLA BLA BLA BLA BLA BLA BLA 
BLA BLA BLA BLA BLA BLA BLA BLA BLA BLA BLA BLA BLA BLA BLA BLA BLA BLA BLA BLA 
BLA BLA BLA BLA BLA BLA BLA BLA BLA BLA BLA BLA BLA BLA BLA BLA BLA BLA BLA BLA 
BLA BLA BLA BLA BLA BLA BLA BLA BLA BLA BLA BLA BLA BLA BLA BLA BLA BLA BLA BLA 
BLA BLA BLA BLA BLA BLA BLA BLA BLA BLA BLA BLA BLA BLA BLA BLA BLA BLA BLA BLA 
BLA BLA BLA BLA BLA BLA BLA BLA BLA BLA BLA BLA BLA BLA BLA BLA BLA BLA BLA BLA 
BLA BLA BLA BLA BLA BLA BLA BLA BLA BLA BLA BLA BLA BLA BLA BLA BLA BLA BLA BLA 
BLA BLA BLA BLA BLA BLA BLA BLA BLA BLA BLA BLA BLA BLA BLA BLA BLA BLA BLA BLA 
BLA BLA BLA BLA BLA BLA BLA BLA BLA BLA BLA BLA BLA BLA BLA BLA BLA BLA BLA BLA 
BLA BLA BLA BLA BLA BLA BLA BLA BLA BLA BLA BLA BLA BLA BLA BLA BLA BLA BLA BLA 
BLA BLA BLA BLA BLA BLA BLA BLA BLA BLA BLA BLA BLA BLA BLA BLA BLA BLA BLA BLA 
BLA BLA BLA BLA BLA BLA BLA BLA BLA BLA BLA BLA BLA BLA BLA BLA BLA BLA BLA BLA 
BLA BLA BLA BLA BLA BLA BLA BLA BLA BLA BLA BLA BLA BLA BLA BLA BLA BLA BLA BLA 
BLA BLA BLA BLA BLA BLA BLA BLA BLA BLA BLA BLA BLA BLA BLA BLA BLA BLA BLA BLA 
BLA BLA BLA BLA BLA BLA BLA BLA BLA BLA BLA BLA BLA BLA BLA BLA BLA BLA BLA BLA 
BLA BLA BLA BLA BLA BLA BLA BLA BLA BLA BLA BLA BLA BLA BLA BLA BLA BLA BLA BLA 
BLA BLA BLA BLA BLA BLA BLA BLA BLA BLA BLA BLA BLA BLA BLA BLA BLA BLA BLA BLA 
BLA BLA BLA BLA BLA BLA BLA BLA BLA BLA BLA BLA BLA BLA BLA BLA BLA BLA BLA BLA 
BLA BLA BLA BLA BLA BLA BLA BLA BLA BLA BLA BLA BLA BLA BLA BLA BLA BLA BLA BLA 
BLA BLA BLA BLA BLA BLA BLA BLA BLA BLA BLA BLA BLA BLA BLA BLA BLA BLA BLA BLA 
BLA BLA BLA BLA BLA BLA BLA BLA BLA BLA BLA BLA BLA BLA BLA BLA BLA BLA BLA BLA 
BLA BLA BLA BLA BLA BLA BLA BLA BLA BLA BLA BLA BLA BLA BLA BLA BLA BLA BLA BLA 
BLA BLA BLA BLA BLA BLA BLA BLA BLA BLA BLA BLA BLA BLA BLA BLA BLA BLA BLA BLA 
BLA BLA BLA BLA BLA BLA BLA BLA BLA BLA BLA BLA BLA BLA BLA BLA BLA BLA BLA BLA 
BLA BLA BLA BLA BLA BLA BLA BLA BLA BLA BLA BLA BLA BLA BLA BLA BLA BLA BLA BLA 
BLA BLA BLA BLA BLA BLA BLA BLA BLA BLA BLA BLA BLA BLA BLA BLA BLA BLA BLA BLA 
BLA BLA BLA BLA BLA BLA BLA BLA BLA BLA BLA BLA BLA BLA BLA BLA BLA BLA BLA BLA 
BLA BLA BLA BLA BLA BLA BLA BLA BLA BLA BLA BLA BLA BLA BLA BLA BLA BLA BLA BLA 
BLA BLA BLA BLA BLA BLA BLA BLA BLA BLA BLA BLA BLA BLA BLA BLA BLA BLA BLA BLA 
BLA BLA BLA BLA BLA BLA BLA BLA BLA BLA BLA BLA BLA BLA BLA BLA BLA BLA BLA BLA 
BLA BLA BLA BLA BLA BLA BLA BLA BLA BLA BLA BLA BLA BLA BLA BLA BLA BLA BLA BLA 
BLA BLA BLA BLA BLA BLA BLA BLA BLA BLA BLA BLA BLA BLA BLA BLA BLA BLA BLA BLA 
BLA BLA BLA BLA BLA BLA BLA BLA BLA BLA BLA BLA BLA BLA BLA BLA BLA BLA BLA BLA 
BLA BLA BLA BLA BLA BLA BLA BLA BLA BLA BLA BLA BLA BLA BLA BLA BLA BLA BLA BLA 
BLA BLA BLA BLA BLA BLA BLA BLA BLA BLA BLA BLA BLA BLA BLA BLA BLA BLA BLA BLA 
BLA BLA BLA BLA BLA BLA BLA BLA BLA BLA BLA BLA BLA BLA BLA BLA BLA BLA BLA BLA 
BLA BLA BLA BLA BLA BLA BLA BLA BLA BLA BLA BLA BLA BLA BLA BLA BLA BLA BLA BLA 
BLA BLA BLA BLA BLA BLA BLA BLA BLA BLA BLA BLA BLA BLA BLA BLA BLA BLA BLA BLA 
BLA BLA BLA BLA BLA BLA BLA BLA BLA BLA BLA BLA BLA BLA BLA BLA BLA BLA BLA BLA 
BLA BLA BLA BLA BLA BLA BLA BLA BLA BLA BLA BLA BLA BLA BLA BLA BLA BLA BLA BLA 
BLA BLA BLA BLA BLA BLA BLA BLA BLA BLA BLA BLA BLA BLA BLA BLA BLA BLA BLA BLA 
BLA BLA BLA BLA BLA BLA BLA BLA BLA BLA BLA BLA BLA BLA BLA BLA BLA BLA BLA BLA 
BLA BLA BLA BLA BLA BLA BLA BLA BLA BLA BLA BLA BLA BLA BLA BLA BLA BLA BLA BLA 
BLA BLA BLA BLA BLA BLA BLA BLA BLA BLA BLA BLA BLA BLA BLA BLA BLA BLA BLA BLA 
BLA BLA BLA BLA BLA BLA BLA BLA BLA BLA BLA BLA BLA BLA BLA BLA BLA BLA BLA BLA 
BLA BLA BLA BLA BLA BLA BLA BLA BLA BLA BLA BLA BLA BLA BLA BLA BLA BLA BLA BLA 
BLA BLA BLA BLA 
%FLAG JOIN_ARRAY                                                                
%FORMAT(10I8)                                                                   
       0       0       0       0       0       0       0       0       0       0
       0       0       0       0       0       0       0       0       0       0
       0       0       0       0       0       0       0       0       0       0
       0       0       0       0       0       0       0       0       0       0
       0       0       0       0       0       0       0       0       0       0
       0       0       0       0       0       0       0       0       0       0
       0       0       0       0       0       0       0       0       0       0
       0       0       0       0       0       0       0       0       0       0
       0       0       0       0       0       0       0       0       0       0
       0       0       0       0       0       0       0       0       0       0
       0       0       0       0       0       0       0       0       0       0
       0       0       0       0       0       0       0       0       0       0
       0       0       0       0       0       0       0       0       0       0
       0       0       0       0       0       0       0       0       0       0
       0       0       0       0       0       0       0       0       0       0
       0       0       0       0       0       0       0       0       0       0
       0       0       0       0       0       0       0       0       0       0
       0       0       0       0       0       0       0       0       0       0
       0       0       0       0       0       0       0       0       0       0
       0       0       0       0       0       0       0       0       0       0
       0       0       0       0       0       0       0       0       0       0
       0       0       0       0       0       0       0       0       0       0
       0       0       0       0       0       0       0       0       0       0
       0       0       0       0       0       0       0       0       0       0
       0       0       0       0       0       0       0       0       0       0
       0       0       0       0       0       0       0       0       0       0
       0       0       0       0       0       0       0       0       0       0
       0       0       0       0       0       0       0       0       0       0
       0       0       0       0       0       0       0       0       0       0
       0       0       0       0       0       0       0       0       0       0
       0       0       0       0       0       0       0       0       0       0
       0       0       0       0       0       0       0       0       0       0
       0       0       0       0       0       0       0       0       0       0
       0       0       0       0       0       0       0       0       0       0
       0       0       0       0       0       0       0       0       0       0
       0       0       0       0       0       0       0       0       0       0
       0       0       0       0       0       0       0       0       0       0
       0       0       0       0       0       0       0       0       0       0
       0       0       0       0       0       0       0       0       0       0
       0       0       0       0       0       0       0       0       0       0
       0       0       0       0       0       0       0       0       0       0
       0       0       0       0       0       0       0       0       0       0
       0       0       0       0       0       0       0       0       0       0
       0       0       0       0       0       0       0       0       0       0
       0       0       0       0       0       0       0       0       0       0
       0       0       0       0       0       0       0       0       0       0
       0       0       0       0       0       0       0       0       0       0
       0       0       0       0       0       0       0       0       0       0
       0       0       0       0       0       0       0       0       0       0
       0       0       0       0       0       0       0       0       0       0
       0       0       0       0       0       0       0       0       0       0
       0       0       0       0       0       0       0       0       0       0
       0       0       0       0       0       0       0       0       0       0
       0       0       0       0       0       0       0       0       0       0
       0       0       0       0       0       0       0       0       0       0
       0       0       0       0       0       0       0       0       0       0
       0       0       0       0       0       0       0       0       0       0
       0       0       0       0       0       0       0       0       0       0
       0       0       0       0       0       0       0       0       0       0
       0       0       0       0       0       0       0       0       0       0
       0       0       0       0       0       0       0       0       0       0
       0       0       0       0       0       0       0       0       0       0
       0       0       0       0       0       0       0       0       0       0
       0       0       0       0       0       0       0       0       0       0
       0       0       0       0       0       0       0       0       0       0
       0       0       0       0       0       0       0       0       0       0
       0       0       0       0       0       0       0       0       0       0
       0       0       0       0       0       0       0       0       0       0
       0       0       0       0       0       0       0       0       0       0
       0       0       0       0       0       0       0       0       0       0
       0       0       0       0       0       0       0       0       0       0
       0       0       0       0       0       0       0       0       0       0
       0       0       0       0       0       0       0       0       0       0
       0       0       0       0       0       0       0       0       0       0
       0       0       0       0       0       0       0       0       0       0
       0       0       0       0       0       0       0       0       0       0
       0       0       0       0       0       0       0       0       0       0
       0       0       0       0       0       0       0       0       0       0
       0       0       0       0       0       0       0       0       0       0
       0       0       0       0       0       0       0       0       0       0
       0       0       0       0       0       0       0       0       0       0
       0       0       0       0       0       0       0       0       0       0
       0       0       0       0       0       0       0       0       0       0
       0       0       0       0       0       0       0       0       0       0
       0       0       0       0       0       0       0       0       0       0
       0       0       0       0       0       0       0       0       0       0
       0       0       0       0       0       0       0       0       0       0
       0       0       0       0       0       0       0       0       0       0
       0       0       0       0       0       0       0       0       0       0
       0       0       0       0       0       0       0       0       0       0
       0       0       0       0       0       0       0       0       0       0
       0       0       0       0       0       0       0       0       0       0
       0       0       0       0       0       0       0       0       0       0
       0       0       0       0       0       0       0       0       0       0
       0       0       0       0       0       0       0       0       0       0
       0       0       0       0       0       0       0       0       0       0
       0       0       0       0       0       0       0       0       0       0
       0       0       0       0       0       0       0       0       0       0
       0       0       0       0       0       0       0       0       0       0
       0       0       0       0       0       0       0       0       0       0
       0       0       0       0       0       0       0       0       0       0
       0       0       0       0       0       0       0       0       0       0
       0       0       0       0       0       0       0       0       0       0
       0       0       0       0       0       0       0       0       0       0
       0       0       0       0       0       0       0       0       0       0
       0       0       0       0       0       0       0       0       0       0
       0       0       0       0       0       0       0       0       0       0
       0       0       0       0       0       0       0       0       0       0
       0       0       0       0       0       0       0       0       0       0
       0       0       0       0       0       0       0       0       0       0
       0       0       0       0       0       0       0       0       0       0
       0       0       0       0       0       0       0       0       0       0
       0       0       0       0       0       0       0       0       0       0
       0       0       0       0       0       0       0       0       0       0
       0       0       0       0       0       0       0       0       0       0
       0       0       0       0       0       0       0       0       0       0
       0       0       0       0       0       0       0       0       0       0
       0       0       0       0       0       0       0       0       0       0
       0       0       0       0       0       0       0       0       0       0
       0       0       0       0       0       0       0       0       0       0
       0       0       0       0       0       0       0       0       0       0
       0       0       0       0       0       0       0       0       0       0
       0       0       0       0       0       0       0       0       0       0
       0       0       0       0       0       0       0       0       0       0
       0       0       0       0       0       0       0       0       0       0
       0       0       0       0       0       0       0       0       0       0
       0       0       0       0       0       0       0       0       0       0
       0       0       0       0       0       0       0       0       0       0
       0       0       0       0       0       0       0       0       0       0
       0       0       0       0       0       0       0       0       0       0
       0       0       0       0       0       0       0       0       0       0
       0       0       0       0       0       0       0       0       0       0
       0       0       0       0       0       0       0       0       0       0
       0       0       0       0       0       0       0       0       0       0
       0       0       0       0       0       0       0       0       0       0
       0       0       0       0       0       0       0       0       0       0
       0       0       0       0       0       0       0       0       0       0
       0       0       0       0       0       0       0       0       0       0
       0       0       0       0       0       0       0       0       0       0
       0       0       0       0       0       0       0       0       0       0
       0       0       0       0       0       0       0       0       0       0
       0       0       0       0       0       0       0       0       0       0
       0       0       0       0       0       0       0       0       0       0
       0       0       0       0       0       0       0       0       0       0
       0       0       0       0       0       0       0       0       0       0
       0       0       0       0       0       0       0       0       0       0
       0       0       0       0       0       0       0       0       0       0
       0       0       0       0       0       0       0       0       0       0
       0       0       0       0       0       0       0       0       0       0
       0       0       0       0       0       0       0       0       0       0
       0       0       0       0       0       0       0       0       0       0
       0       0       0       0       0       0       0       0       0       0
       0       0       0       0       0       0       0       0       0       0
       0       0       0       0       0       0       0       0       0       0
       0       0       0       0       0       0       0       0       0       0
       0       0       0       0       0       0       0       0       0       0
       0       0       0       0       0       0       0       0       0       0
       0       0       0       0       0       0       0       0       0       0
       0       0       0       0       0       0       0       0       0       0
       0       0       0       0       0       0       0       0       0       0
       0       0       0       0       0       0       0       0       0       0
       0       0       0       0       0       0       0       0       0       0
       0       0       0       0       0       0       0       0       0       0
       0       0       0       0       0       0       0       0       0       0
       0       0       0       0       0       0       0       0       0       0
       0       0       0       0       0       0       0       0       0       0
       0       0       0       0       0       0       0       0       0       0
       0       0       0       0       0       0       0       0       0       0
       0       0       0       0       0       0       0       0       0       0
       0       0       0       0       0       0       0       0       0       0
       0       0       0       0       0       0       0       0       0       0
       0       0       0       0       0       0       0       0       0       0
       0       0       0       0       0       0       0       0       0       0
       0       0       0       0       0       0       0       0       0       0
       0       0       0       0       0       0       0       0       0       0
       0       0       0       0       0       0       0       0       0       0
       0       0       0       0       0       0       0       0       0       0
       0       0       0       0       0       0       0       0       0       0
       0       0       0       0       0       0       0       0       0       0
       0       0       0       0       0       0       0       0       0       0
       0       0       0       0       0       0       0       0       0       0
       0       0       0       0       0       0       0       0       0       0
       0       0       0       0       0       0       0       0       0       0
       0       0       0       0       0       0       0       0       0       0
       0       0       0       0       0       0       0       0       0       0
       0       0       0       0       0       0       0       0       0       0
       0       0       0       0       0       0       0       0       0       0
       0       0       0       0       0       0       0       0       0       0
       0       0       0       0       0       0       0       0       0       0
       0       0       0       0       0       0       0       0       0       0
       0       0       0       0       0       0       0       0       0       0
       0       0       0       0       0       0       0       0       0       0
       0       0       0       0       0       0       0       0       0       0
       0       0       0       0       0       0       0       0       0       0
       0       0       0       0
%FLAG IROTAT                                                                    
%FORMAT(10I8)                                                                   
       0       0       0       0       0       0       0       0       0       0
       0       0       0       0       0       0       0       0       0       0
       0       0       0       0       0       0       0       0       0       0
       0       0       0       0       0       0       0       0       0       0
       0       0       0       0       0       0       0       0       0       0
       0       0       0       0       0       0       0       0       0       0
       0       0       0       0       0       0       0       0       0       0
       0       0       0       0       0       0       0       0       0       0
       0       0       0       0       0       0       0       0       0       0
       0       0       0       0       0       0       0       0       0       0
       0       0       0       0       0       0       0       0       0       0
       0       0       0       0       0       0       0       0       0       0
       0       0       0       0       0       0       0       0       0       0
       0       0       0       0       0       0       0       0       0       0
       0       0       0       0       0       0       0       0       0       0
       0       0       0       0       0       0       0       0       0       0
       0       0       0       0       0       0       0       0       0       0
       0       0       0       0       0       0       0       0       0       0
       0       0       0       0       0       0       0       0       0       0
       0       0       0       0       0       0       0       0       0       0
       0       0       0       0       0       0       0       0       0       0
       0       0       0       0       0       0       0       0       0       0
       0       0       0       0       0       0       0       0       0       0
       0       0       0       0       0       0       0       0       0       0
       0       0       0       0       0       0       0       0       0       0
       0       0       0       0       0       0       0       0       0       0
       0       0       0       0       0       0       0       0       0       0
       0       0       0       0       0       0       0       0       0       0
       0       0       0       0       0       0       0       0       0       0
       0       0       0       0       0       0       0       0       0       0
       0       0       0       0       0       0       0       0       0       0
       0       0       0       0       0       0       0       0       0       0
       0       0       0       0       0       0       0       0       0       0
       0       0       0       0       0       0       0       0       0       0
       0       0       0       0       0       0       0       0       0       0
       0       0       0       0       0       0       0       0       0       0
       0       0       0       0       0       0       0       0       0       0
       0       0       0       0       0       0       0       0       0       0
       0       0       0       0       0       0       0       0       0       0
       0       0       0       0       0       0       0       0       0       0
       0       0       0       0       0       0       0       0       0       0
       0       0       0       0       0       0       0       0       0       0
       0       0       0       0       0       0       0       0       0       0
       0       0       0       0       0       0       0       0       0       0
       0       0       0       0       0       0       0       0       0       0
       0       0       0       0       0       0       0       0       0       0
       0       0       0       0       0       0       0       0       0       0
       0       0       0       0       0       0       0       0       0       0
       0       0       0       0       0       0       0       0       0       0
       0       0       0       0       0       0       0       0       0       0
       0       0       0       0       0       0       0       0       0       0
       0       0       0       0       0       0       0       0       0       0
       0       0       0       0       0       0       0       0       0       0
       0       0       0       0       0       0       0       0       0       0
       0       0       0       0       0       0       0       0       0       0
       0       0       0       0       0       0       0       0       0       0
       0       0       0       0       0       0       0       0       0       0
       0       0       0       0       0       0       0       0       0       0
       0       0       0       0       0       0       0       0       0       0
       0       0       0       0       0       0       0       0       0       0
       0       0       0       0       0       0       0       0       0       0
       0       0       0       0       0       0       0       0       0       0
       0       0       0       0       0       0       0       0       0       0
       0       0       0       0       0       0       0       0       0       0
       0       0       0       0       0       0       0       0       0       0
       0       0       0       0       0       0       0       0       0       0
       0       0       0       0       0       0       0       0       0       0
       0       0       0       0       0       0       0       0       0       0
       0       0       0       0       0       0       0       0       0       0
       0       0       0       0       0       0       0       0       0       0
       0       0       0       0       0       0       0       0       0       0
       0       0       0       0       0       0       0       0       0       0
       0       0       0       0       0       0       0       0       0       0
       0       0       0       0       0       0       0       0       0       0
       0       0       0       0       0       0       0       0       0       0
       0       0       0       0       0       0       0       0       0       0
       0       0       0       0       0       0       0       0       0       0
       0       0       0       0       0       0       0       0       0       0
       0       0       0       0       0       0       0       0       0       0
       0       0       0       0       0       0       0       0       0       0
       0       0       0       0       0       0       0       0       0       0
       0       0       0       0       0       0       0       0       0       0
       0       0       0       0       0       0       0       0       0       0
       0       0       0       0       0       0       0       0       0       0
       0       0       0       0       0       0       0       0       0       0
       0       0       0       0       0       0       0       0       0       0
       0       0       0       0       0       0       0       0       0       0
       0       0       0       0       0       0       0       0       0       0
       0       0       0       0       0       0       0       0       0       0
       0       0       0       0       0       0       0       0       0       0
       0       0       0       0       0       0       0       0       0       0
       0       0       0       0       0       0       0       0       0       0
       0       0       0       0       0       0       0       0       0       0
       0       0       0       0       0       0       0       0       0       0
       0       0       0       0       0       0       0       0       0       0
       0       0       0       0       0       0       0       0       0       0
       0       0       0       0       0       0       0       0       0       0
       0       0       0       0       0       0       0       0       0       0
       0       0       0       0       0       0       0       0       0       0
       0       0       0       0       0       0       0       0       0       0
       0       0       0       0       0       0       0       0       0       0
       0       0       0       0       0       0       0       0       0       0
       0       0       0       0       0       0       0       0       0       0
       0       0       0       0       0       0       0       0       0       0
       0       0       0       0       0       0       0       0       0       0
       0       0       0       0       0       0       0       0       0       0
       0       0       0       0       0       0       0       0       0       0
       0       0       0       0       0       0       0       0       0       0
       0       0       0       0       0       0       0       0       0       0
       0       0       0       0       0       0       0       0       0       0
       0       0       0       0       0       0       0       0       0       0
       0       0       0       0       0       0       0       0       0       0
       0       0       0       0       0       0       0       0       0       0
       0       0       0       0       0       0       0       0       0       0
       0       0       0       0       0       0       0       0       0       0
       0       0       0       0       0       0       0       0       0       0
       0       0       0       0       0       0       0       0       0       0
       0       0       0       0       0       0       0       0       0       0
       0       0       0       0       0       0       0       0       0       0
       0       0       0       0       0       0       0       0       0       0
       0       0       0       0       0       0       0       0       0       0
       0       0       0       0       0       0       0       0       0       0
       0       0       0       0       0       0       0       0       0       0
       0       0       0       0       0       0       0       0       0       0
       0       0       0       0       0       0       0       0       0       0
       0       0       0       0       0       0       0       0       0       0
       0       0       0       0       0       0       0       0       0       0
       0       0       0       0       0       0       0       0       0       0
       0       0       0       0       0       0       0       0       0       0
       0       0       0       0       0       0       0       0       0       0
       0       0       0       0       0       0       0       0       0       0
       0       0       0       0       0       0       0       0       0       0
       0       0       0       0       0       0       0       0       0       0
       0       0       0       0       0       0       0       0       0       0
       0       0       0       0       0       0       0       0       0       0
       0       0       0       0       0       0       0       0       0       0
       0       0       0       0       0       0       0       0       0       0
       0       0       0       0       0       0       0       0       0       0
       0       0       0       0       0       0       0       0       0       0
       0       0       0       0       0       0       0       0       0       0
       0       0       0       0       0       0       0       0       0       0
       0       0       0       0       0       0       0       0       0       0
       0       0       0       0       0       0       0       0       0       0
       0       0       0       0       0       0       0       0       0       0
       0       0       0       0       0       0       0       0       0       0
       0       0       0       0       0       0       0       0       0       0
       0       0       0       0       0       0       0       0       0       0
       0       0       0       0       0       0       0       0       0       0
       0       0       0       0       0       0       0       0       0       0
       0       0       0       0       0       0       0       0       0       0
       0       0       0       0       0       0       0       0       0       0
       0       0       0       0       0       0       0       0       0       0
       0       0       0       0       0       0       0       0       0       0
       0       0       0       0       0       0       0       0       0       0
       0       0       0       0       0       0       0       0       0       0
       0       0       0       0       0       0       0       0       0       0
       0       0       0       0       0       0       0       0       0       0
       0       0       0       0       0       0       0       0       0       0
       0       0       0       0       0       0       0       0       0       0
       0       0       0       0       0       0       0       0       0       0
       0       0       0       0       0       0       0       0       0       0
       0       0       0       0       0       0       0       0       0       0
       0       0       0       0       0       0       0       0       0       0
       0       0       0       0       0       0       0       0       0       0
       0       0       0       0       0       0       0       0       0       0
       0       0       0       0       0       0       0       0       0       0
       0       0       0       0       0       0       0       0       0       0
       0       0       0       0       0       0       0       0       0       0
       0       0       0       0       0       0       0       0       0       0
       0       0       0       0       0       0       0       0       0       0
       0       0       0       0       0       0       0       0       0       0
       0       0       0       0       0       0       0       0       0       0
       0       0       0       0       0       0       0       0       0       0
       0       0       0       0       0       0       0       0       0       0
       0       0       0       0       0       0       0       0       0       0
       0       0       0       0       0       0       0       0       0       0
       0       0       0       0       0       0       0       0       0       0
       0       0       0       0       0       0       0       0       0       0
       0       0       0       0       0       0       0       0       0       0
       0       0       0       0       0       0       0       0       0       0
       0       0       0       0       0       0       0       0       0       0
       0       0       0       0       0       0       0       0       0       0
       0       0       0       0       0       0       0       0       0       0
       0       0       0       0       0       0       0       0       0       0
       0       0       0       0       0       0       0       0       0       0
       0       0       0       0       0       0       0       0       0       0
       0       0       0       0       0       0       0       0       0       0
       0       0       0       0       0       0       0       0       0       0
       0       0       0       0       0       0       0       0       0       0
       0       0       0       0       0       0       0       0       0       0
       0       0       0       0       0       0       0       0       0       0
       0       0       0       0       0       0       0       0       0       0
       0       0       0       0       0       0       0       0       0       0
       0       0       0       0       0       0       0       0       0       0
       0       0       0       0
%FLAG RADIUS_SET                                                                
%FORMAT(1a80)                                                                   
modified Bondi radii (mbondi)                                                   
%FLAG RADII                                                                     
%FORMAT(5E16.8)                                                                 
  1.70000000E+00  1.70000000E+00  1.70000000E+00  1.70000000E+00  1.70000000E+00
  1.30000000E+00  1.70000000E+00  1.70000000E+00  1.70000000E+00  1.30000000E+00
  1.70000000E+00  1.70000000E+00  1.30000000E+00  1.30000000E+00  1.70000000E+00
  1.70000000E+00  1.70000000E+00  1.30000000E+00  1.70000000E+00  1.70000000E+00
  1.70000000E+00  1.30000000E+00  1.70000000E+00  1.30000000E+00  1.30000000E+00
  1.30000000E+00  1.70000000E+00  1.70000000E+00  1.30000000E+00  1.70000000E+00
  1.70000000E+00  1.30000000E+00  1.70000000E+00  1.30000000E+00  1.30000000E+00
  1.30000000E+00  1.70000000E+00  1.70000000E+00  1.70000000E+00  1.70000000E+00
  1.70000000E+00  1.30000000E+00  1.70000000E+00  1.70000000E+00  1.70000000E+00
  1.30000000E+00  1.70000000E+00  1.70000000E+00  1.30000000E+00  1.30000000E+00
  1.70000000E+00  1.70000000E+00  1.70000000E+00  1.30000000E+00  1.70000000E+00
  1.70000000E+00  1.70000000E+00  1.30000000E+00  1.70000000E+00  1.30000000E+00
  1.30000000E+00  1.30000000E+00  1.70000000E+00  1.70000000E+00  1.30000000E+00
  1.70000000E+00  1.70000000E+00  1.30000000E+00  1.70000000E+00  1.30000000E+00
  1.30000000E+00  1.30000000E+00  1.70000000E+00  1.70000000E+00  1.70000000E+00
  1.70000000E+00  1.70000000E+00  1.30000000E+00  1.70000000E+00  1.70000000E+00
  1.70000000E+00  1.30000000E+00  1.70000000E+00  1.70000000E+00  1.30000000E+00
  1.30000000E+00  1.70000000E+00  1.70000000E+00  1.70000000E+00  1.30000000E+00
  1.70000000E+00  1.70000000E+00  1.70000000E+00  1.30000000E+00  1.70000000E+00
  1.30000000E+00  1.30000000E+00  1.30000000E+00  1.70000000E+00  1.70000000E+00
  1.30000000E+00  1.70000000E+00  1.70000000E+00  1.30000000E+00  1.70000000E+00
  1.30000000E+00  1.30000000E+00  1.30000000E+00  1.70000000E+00  1.70000000E+00
  1.70000000E+00  1.70000000E+00  1.70000000E+00  1.30000000E+00  1.70000000E+00
  1.70000000E+00  1.70000000E+00  1.30000000E+00  1.70000000E+00  1.70000000E+00
  1.30000000E+00  1.30000000E+00  1.70000000E+00  1.70000000E+00  1.70000000E+00
  1.30000000E+00  1.70000000E+00  1.70000000E+00  1.70000000E+00  1.30000000E+00
  1.70000000E+00  1.30000000E+00  1.30000000E+00  1.30000000E+00  1.70000000E+00
  1.70000000E+00  1.30000000E+00  1.70000000E+00  1.70000000E+00  1.30000000E+00
  1.70000000E+00  1.30000000E+00  1.30000000E+00  1.30000000E+00  1.70000000E+00
  1.70000000E+00  1.70000000E+00  1.70000000E+00  1.70000000E+00  1.30000000E+00
  1.70000000E+00  1.70000000E+00  1.70000000E+00  1.30000000E+00  1.70000000E+00
  1.70000000E+00  1.30000000E+00  1.30000000E+00  1.70000000E+00  1.70000000E+00
  1.70000000E+00  1.30000000E+00  1.70000000E+00  1.70000000E+00  1.70000000E+00
  1.30000000E+00  1.70000000E+00  1.30000000E+00  1.30000000E+00  1.30000000E+00
  1.70000000E+00  1.70000000E+00  1.30000000E+00  1.70000000E+00  1.70000000E+00
  1.30000000E+00  1.70000000E+00  1.30000000E+00  1.30000000E+00  1.30000000E+00
  1.70000000E+00  1.70000000E+00  1.70000000E+00  1.70000000E+00  1.70000000E+00
  1.30000000E+00  1.70000000E+00  1.70000000E+00  1.70000000E+00  1.30000000E+00
  1.70000000E+00  1.70000000E+00  1.30000000E+00  1.30000000E+00  1.70000000E+00
  1.70000000E+00  1.70000000E+00  1.30000000E+00  1.70000000E+00  1.70000000E+00
  1.70000000E+00  1.30000000E+00  1.70000000E+00  1.30000000E+00  1.30000000E+00
  1.30000000E+00  1.70000000E+00  1.70000000E+00  1.30000000E+00  1.70000000E+00
  1.70000000E+00  1.30000000E+00  1.70000000E+00  1.30000000E+00  1.30000000E+00
  1.30000000E+00  1.70000000E+00  1.70000000E+00  1.70000000E+00  1.70000000E+00
  1.70000000E+00  1.30000000E+00  1.70000000E+00  1.70000000E+00  1.70000000E+00
  1.30000000E+00  1.70000000E+00  1.70000000E+00  1.30000000E+00  1.30000000E+00
  1.70000000E+00  1.70000000E+00  1.70000000E+00  1.30000000E+00  1.70000000E+00
  1.70000000E+00  1.70000000E+00  1.30000000E+00  1.70000000E+00  1.30000000E+00
  1.30000000E+00  1.30000000E+00  1.70000000E+00  1.70000000E+00  1.30000000E+00
  1.70000000E+00  1.70000000E+00  1.30000000E+00  1.70000000E+00  1.30000000E+00
  1.30000000E+00  1.30000000E+00  1.70000000E+00  1.70000000E+00  1.70000000E+00
  1.70000000E+00  1.70000000E+00  1.30000000E+00  1.70000000E+00  1.70000000E+00
  1.70000000E+00  1.30000000E+00  1.70000000E+00  1.70000000E+00  1.30000000E+00
  1.30000000E+00  1.70000000E+00  1.70000000E+00  1.70000000E+00  1.30000000E+00
  1.70000000E+00  1.70000000E+00  1.70000000E+00  1.30000000E+00  1.70000000E+00
  1.30000000E+00  1.30000000E+00  1.30000000E+00  1.70000000E+00  1.70000000E+00
  1.30000000E+00  1.70000000E+00  1.70000000E+00  1.30000000E+00  1.70000000E+00
  1.30000000E+00  1.30000000E+00  1.30000000E+00  1.70000000E+00  1.70000000E+00
  1.70000000E+00  1.70000000E+00  1.70000000E+00  1.30000000E+00  1.70000000E+00
  1.70000000E+00  1.70000000E+00  1.30000000E+00  1.70000000E+00  1.70000000E+00
  1.30000000E+00  1.30000000E+00  1.70000000E+00  1.70000000E+00  1.70000000E+00
  1.30000000E+00  1.70000000E+00  1.70000000E+00  1.70000000E+00  1.30000000E+00
  1.70000000E+00  1.30000000E+00  1.30000000E+00  1.30000000E+00  1.70000000E+00
  1.70000000E+00  1.30000000E+00  1.70000000E+00  1.70000000E+00  1.30000000E+00
  1.70000000E+00  1.30000000E+00  1.30000000E+00  1.30000000E+00  1.70000000E+00
  1.70000000E+00  1.70000000E+00  1.70000000E+00  1.70000000E+00  1.30000000E+00
  1.70000000E+00  1.70000000E+00  1.70000000E+00  1.30000000E+00  1.70000000E+00
  1.70000000E+00  1.30000000E+00  1.30000000E+00  1.70000000E+00  1.70000000E+00
  1.70000000E+00  1.30000000E+00  1.70000000E+00  1.70000000E+00  1.70000000E+00
  1.30000000E+00  1.70000000E+00  1.30000000E+00  1.30000000E+00  1.30000000E+00
  1.70000000E+00  1.70000000E+00  1.30000000E+00  1.70000000E+00  1.70000000E+00
  1.30000000E+00  1.70000000E+00  1.30000000E+00  1.30000000E+00  1.30000000E+00
  1.70000000E+00  1.70000000E+00  1.70000000E+00  1.70000000E+00  1.70000000E+00
  1.30000000E+00  1.70000000E+00  1.70000000E+00  1.70000000E+00  1.30000000E+00
  1.70000000E+00  1.70000000E+00  1.30000000E+00  1.30000000E+00  1.70000000E+00
  1.70000000E+00  1.70000000E+00  1.30000000E+00  1.70000000E+00  1.70000000E+00
  1.70000000E+00  1.30000000E+00  1.70000000E+00  1.30000000E+00  1.30000000E+00
  1.30000000E+00  1.70000000E+00  1.70000000E+00  1.30000000E+00  1.70000000E+00
  1.70000000E+00  1.30000000E+00  1.70000000E+00  1.30000000E+00  1.30000000E+00
  1.30000000E+00  1.70000000E+00  1.70000000E+00  1.70000000E+00  1.70000000E+00
  1.70000000E+00  1.30000000E+00  1.70000000E+00  1.70000000E+00  1.70000000E+00
  1.30000000E+00  1.70000000E+00  1.70000000E+00  1.30000000E+00  1.30000000E+00
  1.70000000E+00  1.70000000E+00  1.70000000E+00  1.30000000E+00  1.70000000E+00
  1.70000000E+00  1.70000000E+00  1.30000000E+00  1.70000000E+00  1.30000000E+00
  1.30000000E+00  1.30000000E+00  1.70000000E+00  1.70000000E+00  1.30000000E+00
  1.70000000E+00  1.70000000E+00  1.30000000E+00  1.70000000E+00  1.30000000E+00
  1.30000000E+00  1.30000000E+00  1.70000000E+00  1.70000000E+00  1.70000000E+00
  1.70000000E+00  1.70000000E+00  1.30000000E+00  1.70000000E+00  1.70000000E+00
  1.70000000E+00  1.30000000E+00  1.70000000E+00  1.70000000E+00  1.30000000E+00
  1.30000000E+00  1.70000000E+00  1.70000000E+00  1.70000000E+00  1.30000000E+00
  1.70000000E+00  1.70000000E+00  1.70000000E+00  1.30000000E+00  1.70000000E+00
  1.30000000E+00  1.30000000E+00  1.30000000E+00  1.70000000E+00  1.70000000E+00
  1.30000000E+00  1.70000000E+00  1.70000000E+00  1.30000000E+00  1.70000000E+00
  1.30000000E+00  1.30000000E+00  1.30000000E+00  1.70000000E+00  1.70000000E+00
  1.70000000E+00  1.70000000E+00  1.70000000E+00  1.30000000E+00  1.70000000E+00
  1.70000000E+00  1.70000000E+00  1.30000000E+00  1.70000000E+00  1.70000000E+00
  1.30000000E+00  1.30000000E+00  1.70000000E+00  1.70000000E+00  1.70000000E+00
  1.30000000E+00  1.70000000E+00  1.70000000E+00  1.70000000E+00  1.30000000E+00
  1.70000000E+00  1.30000000E+00  1.30000000E+00  1.30000000E+00  1.70000000E+00
  1.70000000E+00  1.30000000E+00  1.70000000E+00  1.70000000E+00  1.30000000E+00
  1.70000000E+00  1.30000000E+00  1.30000000E+00  1.30000000E+00  1.70000000E+00
  1.70000000E+00  1.70000000E+00  1.70000000E+00  1.70000000E+00  1.30000000E+00
  1.70000000E+00  1.70000000E+00  1.70000000E+00  1.30000000E+00  1.70000000E+00
  1.70000000E+00  1.30000000E+00  1.30000000E+00  1.70000000E+00  1.70000000E+00
  1.70000000E+00  1.30000000E+00  1.70000000E+00  1.70000000E+00  1.70000000E+00
  1.30000000E+00  1.70000000E+00  1.30000000E+00  1.30000000E+00  1.30000000E+00
  1.70000000E+00  1.70000000E+00  1.30000000E+00  1.70000000E+00  1.70000000E+00
  1.30000000E+00  1.70000000E+00  1.30000000E+00  1.30000000E+00  1.30000000E+00
  1.70000000E+00  1.70000000E+00  1.70000000E+00  1.70000000E+00  1.70000000E+00
  1.30000000E+00  1.70000000E+00  1.70000000E+00  1.70000000E+00  1.30000000E+00
  1.70000000E+00  1.70000000E+00  1.30000000E+00  1.30000000E+00  1.70000000E+00
  1.70000000E+00  1.70000000E+00  1.30000000E+00  1.70000000E+00  1.70000000E+00
  1.70000000E+00  1.30000000E+00  1.70000000E+00  1.30000000E+00  1.30000000E+00
  1.30000000E+00  1.70000000E+00  1.70000000E+00  1.30000000E+00  1.70000000E+00
  1.70000000E+00  1.30000000E+00  1.70000000E+00  1.30000000E+00  1.30000000E+00
  1.30000000E+00  1.70000000E+00  1.70000000E+00  1.70000000E+00  1.70000000E+00
  1.70000000E+00  1.30000000E+00  1.70000000E+00  1.70000000E+00  1.70000000E+00
  1.30000000E+00  1.70000000E+00  1.70000000E+00  1.30000000E+00  1.30000000E+00
  1.70000000E+00  1.70000000E+00  1.70000000E+00  1.30000000E+00  1.70000000E+00
  1.70000000E+00  1.70000000E+00  1.30000000E+00  1.70000000E+00  1.30000000E+00
  1.30000000E+00  1.30000000E+00  1.70000000E+00  1.70000000E+00  1.30000000E+00
  1.70000000E+00  1.70000000E+00  1.30000000E+00  1.70000000E+00  1.30000000E+00
  1.30000000E+00  1.30000000E+00  1.70000000E+00  1.70000000E+00  1.70000000E+00
  1.70000000E+00  1.70000000E+00  1.30000000E+00  1.70000000E+00  1.70000000E+00
  1.70000000E+00  1.30000000E+00  1.70000000E+00  1.70000000E+00  1.30000000E+00
  1.30000000E+00  1.70000000E+00  1.70000000E+00  1.70000000E+00  1.30000000E+00
  1.70000000E+00  1.70000000E+00  1.70000000E+00  1.30000000E+00  1.70000000E+00
  1.30000000E+00  1.30000000E+00  1.30000000E+00  1.70000000E+00  1.70000000E+00
  1.30000000E+00  1.70000000E+00  1.70000000E+00  1.30000000E+00  1.70000000E+00
  1.30000000E+00  1.30000000E+00  1.30000000E+00  1.70000000E+00  1.70000000E+00
  1.70000000E+00  1.70000000E+00  1.70000000E+00  1.30000000E+00  1.70000000E+00
  1.70000000E+00  1.70000000E+00  1.30000000E+00  1.70000000E+00  1.70000000E+00
  1.30000000E+00  1.30000000E+00  1.70000000E+00  1.70000000E+00  1.70000000E+00
  1.30000000E+00  1.70000000E+00  1.70000000E+00  1.70000000E+00  1.30000000E+00
  1.70000000E+00  1.30000000E+00  1.30000000E+00  1.30000000E+00  1.70000000E+00
  1.70000000E+00  1.30000000E+00  1.70000000E+00  1.70000000E+00  1.30000000E+00
  1.70000000E+00  1.30000000E+00  1.30000000E+00  1.30000000E+00  1.70000000E+00
  1.70000000E+00  1.70000000E+00  1.70000000E+00  1.70000000E+00  1.30000000E+00
  1.70000000E+00  1.70000000E+00  1.70000000E+00  1.30000000E+00  1.70000000E+00
  1.70000000E+00  1.30000000E+00  1.30000000E+00  1.70000000E+00  1.70000000E+00
  1.70000000E+00  1.30000000E+00  1.70000000E+00  1.70000000E+00  1.70000000E+00
  1.30000000E+00  1.70000000E+00  1.30000000E+00  1.30000000E+00  1.30000000E+00
  1.70000000E+00  1.70000000E+00  1.30000000E+00  1.70000000E+00  1.70000000E+00
  1.30000000E+00  1.70000000E+00  1.30000000E+00  1.30000000E+00  1.30000000E+00
  1.70000000E+00  1.70000000E+00  1.70000000E+00  1.70000000E+00  1.70000000E+00
  1.30000000E+00  1.70000000E+00  1.70000000E+00  1.70000000E+00  1.30000000E+00
  1.70000000E+00  1.70000000E+00  1.30000000E+00  1.30000000E+00  1.70000000E+00
  1.70000000E+00  1.70000000E+00  1.30000000E+00  1.70000000E+00  1.70000000E+00
  1.70000000E+00  1.30000000E+00  1.70000000E+00  1.30000000E+00  1.30000000E+00
  1.30000000E+00  1.70000000E+00  1.70000000E+00  1.30000000E+00  1.70000000E+00
  1.70000000E+00  1.30000000E+00  1.70000000E+00  1.30000000E+00  1.30000000E+00
  1.30000000E+00  1.70000000E+00  1.70000000E+00  1.70000000E+00  1.70000000E+00
  1.70000000E+00  1.30000000E+00  1.70000000E+00  1.70000000E+00  1.70000000E+00
  1.30000000E+00  1.70000000E+00  1.70000000E+00  1.30000000E+00  1.30000000E+00
  1.70000000E+00  1.70000000E+00  1.70000000E+00  1.30000000E+00  1.70000000E+00
  1.70000000E+00  1.70000000E+00  1.30000000E+00  1.70000000E+00  1.30000000E+00
  1.30000000E+00  1.30000000E+00  1.70000000E+00  1.70000000E+00  1.30000000E+00
  1.70000000E+00  1.70000000E+00  1.30000000E+00  1.70000000E+00  1.30000000E+00
  1.30000000E+00  1.30000000E+00  1.70000000E+00  1.70000000E+00  1.70000000E+00
  1.70000000E+00  1.70000000E+00  1.30000000E+00  1.70000000E+00  1.70000000E+00
  1.70000000E+00  1.30000000E+00  1.70000000E+00  1.70000000E+00  1.30000000E+00
  1.30000000E+00  1.70000000E+00  1.70000000E+00  1.70000000E+00  1.30000000E+00
  1.70000000E+00  1.70000000E+00  1.70000000E+00  1.30000000E+00  1.70000000E+00
  1.30000000E+00  1.30000000E+00  1.30000000E+00  1.70000000E+00  1.70000000E+00
  1.30000000E+00  1.70000000E+00  1.70000000E+00  1.30000000E+00  1.70000000E+00
  1.30000000E+00  1.30000000E+00  1.30000000E+00  1.70000000E+00  1.70000000E+00
  1.70000000E+00  1.70000000E+00  1.70000000E+00  1.30000000E+00  1.70000000E+00
  1.70000000E+00  1.70000000E+00  1.30000000E+00  1.70000000E+00  1.70000000E+00
  1.30000000E+00  1.30000000E+00  1.70000000E+00  1.70000000E+00  1.70000000E+00
  1.30000000E+00  1.70000000E+00  1.70000000E+00  1.70000000E+00  1.30000000E+00
  1.70000000E+00  1.30000000E+00  1.30000000E+00  1.30000000E+00  1.70000000E+00
  1.70000000E+00  1.30000000E+00  1.70000000E+00  1.70000000E+00  1.30000000E+00
  1.70000000E+00  1.30000000E+00  1.30000000E+00  1.30000000E+00  1.70000000E+00
  1.70000000E+00  1.70000000E+00  1.70000000E+00  1.70000000E+00  1.30000000E+00
  1.70000000E+00  1.70000000E+00  1.70000000E+00  1.30000000E+00  1.70000000E+00
  1.70000000E+00  1.30000000E+00  1.30000000E+00  1.70000000E+00  1.70000000E+00
  1.70000000E+00  1.30000000E+00  1.70000000E+00  1.70000000E+00  1.70000000E+00
  1.30000000E+00  1.70000000E+00  1.30000000E+00  1.30000000E+00  1.30000000E+00
  1.70000000E+00  1.70000000E+00  1.30000000E+00  1.70000000E+00  1.70000000E+00
  1.30000000E+00  1.70000000E+00  1.30000000E+00  1.30000000E+00  1.30000000E+00
  1.70000000E+00  1.70000000E+00  1.70000000E+00  1.70000000E+00  1.70000000E+00
  1.30000000E+00  1.70000000E+00  1.70000000E+00  1.70000000E+00  1.30000000E+00
  1.70000000E+00  1.70000000E+00  1.30000000E+00  1.30000000E+00  1.70000000E+00
  1.70000000E+00  1.70000000E+00  1.30000000E+00  1.70000000E+00  1.70000000E+00
  1.70000000E+00  1.30000000E+00  1.70000000E+00  1.30000000E+00  1.30000000E+00
  1.30000000E+00  1.70000000E+00  1.70000000E+00  1.30000000E+00  1.70000000E+00
  1.70000000E+00  1.30000000E+00  1.70000000E+00  1.30000000E+00  1.30000000E+00
  1.30000000E+00  1.70000000E+00  1.70000000E+00  1.70000000E+00  1.70000000E+00
  1.70000000E+00  1.30000000E+00  1.70000000E+00  1.70000000E+00  1.70000000E+00
  1.30000000E+00  1.70000000E+00  1.70000000E+00  1.30000000E+00  1.30000000E+00
  1.70000000E+00  1.70000000E+00  1.70000000E+00  1.30000000E+00  1.70000000E+00
  1.70000000E+00  1.70000000E+00  1.30000000E+00  1.70000000E+00  1.30000000E+00
  1.30000000E+00  1.30000000E+00  1.70000000E+00  1.70000000E+00  1.30000000E+00
  1.70000000E+00  1.70000000E+00  1.30000000E+00  1.70000000E+00  1.30000000E+00
  1.30000000E+00  1.30000000E+00  1.70000000E+00  1.70000000E+00  1.70000000E+00
  1.70000000E+00  1.70000000E+00  1.30000000E+00  1.70000000E+00  1.70000000E+00
  1.70000000E+00  1.30000000E+00  1.70000000E+00  1.70000000E+00  1.30000000E+00
  1.30000000E+00  1.70000000E+00  1.70000000E+00  1.70000000E+00  1.30000000E+00
  1.70000000E+00  1.70000000E+00  1.70000000E+00  1.30000000E+00  1.70000000E+00
  1.30000000E+00  1.30000000E+00  1.30000000E+00  1.70000000E+00  1.70000000E+00
  1.30000000E+00  1.70000000E+00  1.70000000E+00  1.30000000E+00  1.70000000E+00
  1.30000000E+00  1.30000000E+00  1.30000000E+00  1.70000000E+00  1.70000000E+00
  1.70000000E+00  1.70000000E+00  1.70000000E+00  1.30000000E+00  1.70000000E+00
  1.70000000E+00  1.70000000E+00  1.30000000E+00  1.70000000E+00  1.70000000E+00
  1.30000000E+00  1.30000000E+00  1.70000000E+00  1.70000000E+00  1.70000000E+00
  1.30000000E+00  1.70000000E+00  1.70000000E+00  1.70000000E+00  1.30000000E+00
  1.70000000E+00  1.30000000E+00  1.30000000E+00  1.30000000E+00  1.70000000E+00
  1.70000000E+00  1.30000000E+00  1.70000000E+00  1.70000000E+00  1.30000000E+00
  1.70000000E+00  1.30000000E+00  1.30000000E+00  1.30000000E+00  1.70000000E+00
  1.70000000E+00  1.70000000E+00  1.70000000E+00  1.70000000E+00  1.30000000E+00
  1.70000000E+00  1.70000000E+00  1.70000000E+00  1.30000000E+00  1.70000000E+00
  1.70000000E+00  1.30000000E+00  1.30000000E+00  1.70000000E+00  1.70000000E+00
  1.70000000E+00  1.30000000E+00  1.70000000E+00  1.70000000E+00  1.70000000E+00
  1.30000000E+00  1.70000000E+00  1.30000000E+00  1.30000000E+00  1.30000000E+00
  1.70000000E+00  1.70000000E+00  1.30000000E+00  1.70000000E+00  1.70000000E+00
  1.30000000E+00  1.70000000E+00  1.30000000E+00  1.30000000E+00  1.30000000E+00
  1.70000000E+00  1.70000000E+00  1.70000000E+00  1.70000000E+00  1.70000000E+00
  1.30000000E+00  1.70000000E+00  1.70000000E+00  1.70000000E+00  1.30000000E+00
  1.70000000E+00  1.70000000E+00  1.30000000E+00  1.30000000E+00  1.70000000E+00
  1.70000000E+00  1.70000000E+00  1.30000000E+00  1.70000000E+00  1.70000000E+00
  1.70000000E+00  1.30000000E+00  1.70000000E+00  1.30000000E+00  1.30000000E+00
  1.30000000E+00  1.70000000E+00  1.70000000E+00  1.30000000E+00  1.70000000E+00
  1.70000000E+00  1.30000000E+00  1.70000000E+00  1.30000000E+00  1.30000000E+00
  1.30000000E+00  1.70000000E+00  1.70000000E+00  1.70000000E+00  1.70000000E+00
  1.70000000E+00  1.30000000E+00  1.70000000E+00  1.70000000E+00  1.70000000E+00
  1.30000000E+00  1.70000000E+00  1.70000000E+00  1.30000000E+00  1.30000000E+00
  1.70000000E+00  1.70000000E+00  1.70000000E+00  1.30000000E+00  1.70000000E+00
  1.70000000E+00  1.70000000E+00  1.30000000E+00  1.70000000E+00  1.30000000E+00
  1.30000000E+00  1.30000000E+00  1.70000000E+00  1.70000000E+00  1.30000000E+00
  1.70000000E+00  1.70000000E+00  1.30000000E+00  1.70000000E+00  1.30000000E+00
  1.30000000E+00  1.30000000E+00  1.70000000E+00  1.70000000E+00  1.70000000E+00
  1.70000000E+00  1.70000000E+00  1.30000000E+00  1.70000000E+00  1.70000000E+00
  1.70000000E+00  1.30000000E+00  1.70000000E+00  1.70000000E+00  1.30000000E+00
  1.30000000E+00  1.70000000E+00  1.70000000E+00  1.70000000E+00  1.30000000E+00
  1.70000000E+00  1.70000000E+00  1.70000000E+00  1.30000000E+00  1.70000000E+00
  1.30000000E+00  1.30000000E+00  1.30000000E+00  1.70000000E+00  1.70000000E+00
  1.30000000E+00  1.70000000E+00  1.70000000E+00  1.30000000E+00  1.70000000E+00
  1.30000000E+00  1.30000000E+00  1.30000000E+00  1.70000000E+00  1.70000000E+00
  1.70000000E+00  1.70000000E+00  1.70000000E+00  1.30000000E+00  1.70000000E+00
  1.70000000E+00  1.70000000E+00  1.30000000E+00  1.70000000E+00  1.70000000E+00
  1.30000000E+00  1.30000000E+00  1.70000000E+00  1.70000000E+00  1.70000000E+00
  1.30000000E+00  1.70000000E+00  1.70000000E+00  1.70000000E+00  1.30000000E+00
  1.70000000E+00  1.30000000E+00  1.30000000E+00  1.30000000E+00  1.70000000E+00
  1.70000000E+00  1.30000000E+00  1.70000000E+00  1.70000000E+00  1.30000000E+00
  1.70000000E+00  1.30000000E+00  1.30000000E+00  1.30000000E+00  1.70000000E+00
  1.70000000E+00  1.70000000E+00  1.70000000E+00  1.70000000E+00  1.30000000E+00
  1.70000000E+00  1.70000000E+00  1.70000000E+00  1.30000000E+00  1.70000000E+00
  1.70000000E+00  1.30000000E+00  1.30000000E+00  1.70000000E+00  1.70000000E+00
  1.70000000E+00  1.30000000E+00  1.70000000E+00  1.70000000E+00  1.70000000E+00
  1.30000000E+00  1.70000000E+00  1.30000000E+00  1.30000000E+00  1.30000000E+00
  1.70000000E+00  1.70000000E+00  1.30000000E+00  1.70000000E+00  1.70000000E+00
  1.30000000E+00  1.70000000E+00  1.30000000E+00  1.30000000E+00  1.30000000E+00
  1.70000000E+00  1.70000000E+00  1.70000000E+00  1.70000000E+00  1.70000000E+00
  1.30000000E+00  1.70000000E+00  1.70000000E+00  1.70000000E+00  1.30000000E+00
  1.70000000E+00  1.70000000E+00  1.30000000E+00  1.30000000E+00  1.70000000E+00
  1.70000000E+00  1.70000000E+00  1.30000000E+00  1.70000000E+00  1.70000000E+00
  1.70000000E+00  1.30000000E+00  1.70000000E+00  1.30000000E+00  1.30000000E+00
  1.30000000E+00  1.70000000E+00  1.70000000E+00  1.30000000E+00  1.70000000E+00
  1.70000000E+00  1.30000000E+00  1.70000000E+00  1.30000000E+00  1.30000000E+00
  1.30000000E+00  1.70000000E+00  1.70000000E+00  1.70000000E+00  1.70000000E+00
  1.70000000E+00  1.30000000E+00  1.70000000E+00  1.70000000E+00  1.70000000E+00
  1.30000000E+00  1.70000000E+00  1.70000000E+00  1.30000000E+00  1.30000000E+00
  1.70000000E+00  1.70000000E+00  1.70000000E+00  1.30000000E+00  1.70000000E+00
  1.70000000E+00  1.70000000E+00  1.30000000E+00  1.70000000E+00  1.30000000E+00
  1.30000000E+00  1.30000000E+00  1.70000000E+00  1.70000000E+00  1.30000000E+00
  1.70000000E+00  1.70000000E+00  1.30000000E+00  1.70000000E+00  1.30000000E+00
  1.30000000E+00  1.30000000E+00  1.70000000E+00  1.70000000E+00  1.70000000E+00
  1.70000000E+00  1.70000000E+00  1.30000000E+00  1.70000000E+00  1.70000000E+00
  1.70000000E+00  1.30000000E+00  1.70000000E+00  1.70000000E+00  1.30000000E+00
  1.30000000E+00  1.70000000E+00  1.70000000E+00  1.70000000E+00  1.30000000E+00
  1.70000000E+00  1.70000000E+00  1.70000000E+00  1.30000000E+00  1.70000000E+00
  1.30000000E+00  1.30000000E+00  1.30000000E+00  1.70000000E+00  1.70000000E+00
  1.30000000E+00  1.70000000E+00  1.70000000E+00  1.30000000E+00  1.70000000E+00
  1.30000000E+00  1.30000000E+00  1.30000000E+00  1.70000000E+00  1.70000000E+00
  1.70000000E+00  1.70000000E+00  1.70000000E+00  1.30000000E+00  1.70000000E+00
  1.70000000E+00  1.70000000E+00  1.30000000E+00  1.70000000E+00  1.70000000E+00
  1.30000000E+00  1.30000000E+00  1.70000000E+00  1.70000000E+00  1.70000000E+00
  1.30000000E+00  1.70000000E+00  1.70000000E+00  1.70000000E+00  1.30000000E+00
  1.70000000E+00  1.30000000E+00  1.30000000E+00  1.30000000E+00  1.70000000E+00
  1.70000000E+00  1.30000000E+00  1.70000000E+00  1.70000000E+00  1.30000000E+00
  1.70000000E+00  1.30000000E+00  1.30000000E+00  1.30000000E+00  1.70000000E+00
  1.70000000E+00  1.70000000E+00  1.70000000E+00  1.70000000E+00  1.30000000E+00
  1.70000000E+00  1.70000000E+00  1.70000000E+00  1.30000000E+00  1.70000000E+00
  1.70000000E+00  1.30000000E+00  1.30000000E+00  1.70000000E+00  1.70000000E+00
  1.70000000E+00  1.30000000E+00  1.70000000E+00  1.70000000E+00  1.70000000E+00
  1.30000000E+00  1.70000000E+00  1.30000000E+00  1.30000000E+00  1.30000000E+00
  1.70000000E+00  1.70000000E+00  1.30000000E+00  1.70000000E+00  1.70000000E+00
  1.30000000E+00  1.70000000E+00  1.30000000E+00  1.30000000E+00  1.30000000E+00
  1.70000000E+00  1.70000000E+00  1.70000000E+00  1.70000000E+00  1.70000000E+00
  1.30000000E+00  1.70000000E+00  1.70000000E+00  1.70000000E+00  1.30000000E+00
  1.70000000E+00  1.70000000E+00  1.30000000E+00  1.30000000E+00  1.70000000E+00
  1.70000000E+00  1.70000000E+00  1.30000000E+00  1.70000000E+00  1.70000000E+00
  1.70000000E+00  1.30000000E+00  1.70000000E+00  1.30000000E+00  1.30000000E+00
  1.30000000E+00  1.70000000E+00  1.70000000E+00  1.30000000E+00  1.70000000E+00
  1.70000000E+00  1.30000000E+00  1.70000000E+00  1.30000000E+00  1.30000000E+00
  1.30000000E+00  1.70000000E+00  1.70000000E+00  1.70000000E+00  1.70000000E+00
  1.70000000E+00  1.30000000E+00  1.70000000E+00  1.70000000E+00  1.70000000E+00
  1.30000000E+00  1.70000000E+00  1.70000000E+00  1.30000000E+00  1.30000000E+00
  1.70000000E+00  1.70000000E+00  1.70000000E+00  1.30000000E+00  1.70000000E+00
  1.70000000E+00  1.70000000E+00  1.30000000E+00  1.70000000E+00  1.30000000E+00
  1.30000000E+00  1.30000000E+00  1.70000000E+00  1.70000000E+00  1.30000000E+00
  1.70000000E+00  1.70000000E+00  1.30000000E+00  1.70000000E+00  1.30000000E+00
  1.30000000E+00  1.30000000E+00  1.70000000E+00  1.70000000E+00  1.70000000E+00
  1.70000000E+00  1.70000000E+00  1.30000000E+00  1.70000000E+00  1.70000000E+00
  1.70000000E+00  1.30000000E+00  1.70000000E+00  1.70000000E+00  1.30000000E+00
  1.30000000E+00  1.70000000E+00  1.70000000E+00  1.70000000E+00  1.30000000E+00
  1.70000000E+00  1.70000000E+00  1.70000000E+00  1.30000000E+00  1.70000000E+00
  1.30000000E+00  1.30000000E+00  1.30000000E+00  1.70000000E+00  1.70000000E+00
  1.30000000E+00  1.70000000E+00  1.70000000E+00  1.30000000E+00  1.70000000E+00
  1.30000000E+00  1.30000000E+00  1.30000000E+00  1.70000000E+00  1.70000000E+00
  1.70000000E+00  1.70000000E+00  1.70000000E+00  1.30000000E+00  1.70000000E+00
  1.70000000E+00  1.70000000E+00  1.30000000E+00  1.70000000E+00  1.70000000E+00
  1.30000000E+00  1.30000000E+00  1.70000000E+00  1.70000000E+00  1.70000000E+00
  1.30000000E+00  1.70000000E+00  1.70000000E+00  1.70000000E+00  1.30000000E+00
  1.70000000E+00  1.30000000E+00  1.30000000E+00  1.30000000E+00  1.70000000E+00
  1.70000000E+00  1.30000000E+00  1.70000000E+00  1.70000000E+00  1.30000000E+00
  1.70000000E+00  1.30000000E+00  1.30000000E+00  1.30000000E+00  1.70000000E+00
  1.70000000E+00  1.70000000E+00  1.70000000E+00  1.70000000E+00  1.30000000E+00
  1.70000000E+00  1.70000000E+00  1.70000000E+00  1.30000000E+00  1.70000000E+00
  1.70000000E+00  1.30000000E+00  1.30000000E+00  1.70000000E+00  1.70000000E+00
  1.70000000E+00  1.30000000E+00  1.70000000E+00  1.70000000E+00  1.70000000E+00
  1.30000000E+00  1.70000000E+00  1.30000000E+00  1.30000000E+00  1.30000000E+00
  1.70000000E+00  1.70000000E+00  1.30000000E+00  1.70000000E+00  1.70000000E+00
  1.30000000E+00  1.70000000E+00  1.30000000E+00  1.30000000E+00  1.30000000E+00
  1.70000000E+00  1.70000000E+00  1.70000000E+00  1.70000000E+00  1.70000000E+00
  1.30000000E+00  1.70000000E+00  1.70000000E+00  1.70000000E+00  1.30000000E+00
  1.70000000E+00  1.70000000E+00  1.30000000E+00  1.30000000E+00  1.70000000E+00
  1.70000000E+00  1.70000000E+00  1.30000000E+00  1.70000000E+00  1.70000000E+00
  1.70000000E+00  1.30000000E+00  1.70000000E+00  1.30000000E+00  1.30000000E+00
  1.30000000E+00  1.70000000E+00  1.70000000E+00  1.30000000E+00  1.70000000E+00
  1.70000000E+00  1.30000000E+00  1.70000000E+00  1.30000000E+00  1.30000000E+00
  1.30000000E+00  1.70000000E+00  1.70000000E+00  1.70000000E+00  1.70000000E+00
  1.70000000E+00  1.30000000E+00  1.70000000E+00  1.70000000E+00  1.70000000E+00
  1.30000000E+00  1.70000000E+00  1.70000000E+00  1.30000000E+00  1.30000000E+00
  1.70000000E+00  1.70000000E+00  1.70000000E+00  1.30000000E+00  1.70000000E+00
  1.70000000E+00  1.70000000E+00  1.30000000E+00  1.70000000E+00  1.30000000E+00
  1.30000000E+00  1.30000000E+00  1.70000000E+00  1.70000000E+00  1.30000000E+00
  1.70000000E+00  1.70000000E+00  1.30000000E+00  1.70000000E+00  1.30000000E+00
  1.30000000E+00  1.30000000E+00  1.70000000E+00  1.70000000E+00  1.70000000E+00
  1.70000000E+00  1.70000000E+00  1.30000000E+00  1.70000000E+00  1.70000000E+00
  1.70000000E+00  1.30000000E+00  1.70000000E+00  1.70000000E+00  1.30000000E+00
  1.30000000E+00  1.70000000E+00  1.70000000E+00  1.70000000E+00  1.30000000E+00
  1.70000000E+00  1.70000000E+00  1.70000000E+00  1.30000000E+00  1.70000000E+00
  1.30000000E+00  1.30000000E+00  1.30000000E+00  1.70000000E+00  1.70000000E+00
  1.30000000E+00  1.70000000E+00  1.70000000E+00  1.30000000E+00  1.70000000E+00
  1.30000000E+00  1.30000000E+00  1.30000000E+00  1.70000000E+00  1.70000000E+00
  1.70000000E+00  1.70000000E+00  1.70000000E+00  1.30000000E+00  1.70000000E+00
  1.70000000E+00  1.70000000E+00  1.30000000E+00  1.70000000E+00  1.70000000E+00
  1.30000000E+00  1.30000000E+00  1.70000000E+00  1.70000000E+00  1.70000000E+00
  1.30000000E+00  1.70000000E+00  1.70000000E+00  1.70000000E+00  1.30000000E+00
  1.70000000E+00  1.30000000E+00  1.30000000E+00  1.30000000E+00  1.70000000E+00
  1.70000000E+00  1.30000000E+00  1.70000000E+00  1.70000000E+00  1.30000000E+00
  1.70000000E+00  1.30000000E+00  1.30000000E+00  1.30000000E+00  1.70000000E+00
  1.70000000E+00  1.70000000E+00  1.70000000E+00  1.70000000E+00  1.30000000E+00
  1.70000000E+00  1.70000000E+00  1.70000000E+00  1.30000000E+00  1.70000000E+00
  1.70000000E+00  1.30000000E+00  1.30000000E+00  1.70000000E+00  1.70000000E+00
  1.70000000E+00  1.30000000E+00  1.70000000E+00  1.70000000E+00  1.70000000E+00
  1.30000000E+00  1.70000000E+00  1.30000000E+00  1.30000000E+00  1.30000000E+00
  1.70000000E+00  1.70000000E+00  1.30000000E+00  1.70000000E+00  1.70000000E+00
  1.30000000E+00  1.70000000E+00  1.30000000E+00  1.30000000E+00  1.30000000E+00
  1.70000000E+00  1.70000000E+00  1.70000000E+00  1.70000000E+00  1.70000000E+00
  1.30000000E+00  1.70000000E+00  1.70000000E+00  1.70000000E+00  1.30000000E+00
  1.70000000E+00  1.70000000E+00  1.30000000E+00  1.30000000E+00  1.70000000E+00
  1.70000000E+00  1.70000000E+00  1.30000000E+00  1.70000000E+00  1.70000000E+00
  1.70000000E+00  1.30000000E+00  1.70000000E+00  1.30000000E+00  1.30000000E+00
  1.30000000E+00  1.70000000E+00  1.70000000E+00  1.30000000E+00  1.70000000E+00
  1.70000000E+00  1.30000000E+00  1.70000000E+00  1.30000000E+00  1.30000000E+00
  1.30000000E+00  1.70000000E+00  1.70000000E+00  1.70000000E+00  1.70000000E+00
  1.70000000E+00  1.30000000E+00  1.70000000E+00  1.70000000E+00  1.70000000E+00
  1.30000000E+00  1.70000000E+00  1.70000000E+00  1.30000000E+00  1.30000000E+00
  1.70000000E+00  1.70000000E+00  1.70000000E+00  1.30000000E+00  1.70000000E+00
  1.70000000E+00  1.70000000E+00  1.30000000E+00  1.70000000E+00  1.30000000E+00
  1.30000000E+00  1.30000000E+00  1.70000000E+00  1.70000000E+00  1.30000000E+00
  1.70000000E+00  1.70000000E+00  1.30000000E+00  1.70000000E+00  1.30000000E+00
  1.30000000E+00  1.30000000E+00  1.70000000E+00  1.70000000E+00  1.70000000E+00
  1.70000000E+00  1.70000000E+00  1.30000000E+00  1.70000000E+00  1.70000000E+00
  1.70000000E+00  1.30000000E+00  1.70000000E+00  1.70000000E+00  1.30000000E+00
  1.30000000E+00  1.70000000E+00  1.70000000E+00  1.70000000E+00  1.30000000E+00
  1.70000000E+00  1.70000000E+00  1.70000000E+00  1.30000000E+00  1.70000000E+00
  1.30000000E+00  1.30000000E+00  1.30000000E+00  1.70000000E+00  1.70000000E+00
  1.30000000E+00  1.70000000E+00  1.70000000E+00  1.30000000E+00  1.70000000E+00
  1.30000000E+00  1.30000000E+00  1.30000000E+00  1.70000000E+00  1.70000000E+00
  1.70000000E+00  1.70000000E+00  1.70000000E+00  1.30000000E+00  1.70000000E+00
  1.70000000E+00  1.70000000E+00  1.30000000E+00  1.70000000E+00  1.70000000E+00
  1.30000000E+00  1.30000000E+00  1.70000000E+00  1.70000000E+00  1.70000000E+00
  1.30000000E+00  1.70000000E+00  1.70000000E+00  1.70000000E+00  1.30000000E+00
  1.70000000E+00  1.30000000E+00  1.30000000E+00  1.30000000E+00  1.70000000E+00
  1.70000000E+00  1.30000000E+00  1.70000000E+00  1.70000000E+00  1.30000000E+00
  1.70000000E+00  1.30000000E+00  1.30000000E+00  1.30000000E+00
%FLAG SCREEN                                                                    
%FORMAT(5E16.8)                                                                 
  7.20000000E-01  7.20000000E-01  7.20000000E-01  7.20000000E-01  7.20000000E-01
  8.50000000E-01  7.20000000E-01  7.20000000E-01  7.20000000E-01  8.50000000E-01
  7.20000000E-01  7.20000000E-01  8.50000000E-01  8.50000000E-01  7.20000000E-01
  7.20000000E-01  7.20000000E-01  8.50000000E-01  7.20000000E-01  7.20000000E-01
  7.20000000E-01  8.50000000E-01  7.20000000E-01  8.50000000E-01  8.50000000E-01
  8.50000000E-01  7.20000000E-01  7.20000000E-01  8.50000000E-01  7.20000000E-01
  7.20000000E-01  8.50000000E-01  7.20000000E-01  8.50000000E-01  8.50000000E-01
  8.50000000E-01  7.20000000E-01  7.20000000E-01  7.20000000E-01  7.20000000E-01
  7.20000000E-01  8.50000000E-01  7.20000000E-01  7.20000000E-01  7.20000000E-01
  8.50000000E-01  7.20000000E-01  7.20000000E-01  8.50000000E-01  8.50000000E-01
  7.20000000E-01  7.20000000E-01  7.20000000E-01  8.50000000E-01  7.20000000E-01
  7.20000000E-01  7.20000000E-01  8.50000000E-01  7.20000000E-01  8.50000000E-01
  8.50000000E-01  8.50000000E-01  7.20000000E-01  7.20000000E-01  8.50000000E-01
  7.20000000E-01  7.20000000E-01  8.50000000E-01  7.20000000E-01  8.50000000E-01
  8.50000000E-01  8.50000000E-01  7.20000000E-01  7.20000000E-01  7.20000000E-01
  7.20000000E-01  7.20000000E-01  8.50000000E-01  7.20000000E-01  7.20000000E-01
  7.20000000E-01  8.50000000E-01  7.20000000E-01  7.20000000E-01  8.50000000E-01
  8.50000000E-01  7.20000000E-01  7.20000000E-01  7.20000000E-01  8.50000000E-01
  7.20000000E-01  7.20000000E-01  7.20000000E-01  8.50000000E-01  7.20000000E-01
  8.50000000E-01  8.50000000E-01  8.50000000E-01  7.20000000E-01  7.20000000E-01
  8.50000000E-01  7.20000000E-01  7.20000000E-01  8.50000000E-01  7.20000000E-01
  8.50000000E-01  8.50000000E-01  8.50000000E-01  7.20000000E-01  7.20000000E-01
  7.20000000E-01  7.20000000E-01  7.20000000E-01  8.50000000E-01  7.20000000E-01
  7.20000000E-01  7.20000000E-01  8.50000000E-01  7.20000000E-01  7.20000000E-01
  8.50000000E-01  8.50000000E-01  7.20000000E-01  7.20000000E-01  7.20000000E-01
  8.50000000E-01  7.20000000E-01  7.20000000E-01  7.20000000E-01  8.50000000E-01
  7.20000000E-01  8.50000000E-01  8.50000000E-01  8.50000000E-01  7.20000000E-01
  7.20000000E-01  8.50000000E-01  7.20000000E-01  7.20000000E-01  8.50000000E-01
  7.20000000E-01  8.50000000E-01  8.50000000E-01  8.50000000E-01  7.20000000E-01
  7.20000000E-01  7.20000000E-01  7.20000000E-01  7.20000000E-01  8.50000000E-01
  7.20000000E-01  7.20000000E-01  7.20000000E-01  8.50000000E-01  7.20000000E-01
  7.20000000E-01  8.50000000E-01  8.50000000E-01  7.20000000E-01  7.20000000E-01
  7.20000000E-01  8.50000000E-01  7.20000000E-01  7.20000000E-01  7.20000000E-01
  8.50000000E-01  7.20000000E-01  8.50000000E-01  8.50000000E-01  8.50000000E-01
  7.20000000E-01  7.20000000E-01  8.50000000E-01  7.20000000E-01  7.20000000E-01
  8.50000000E-01  7.20000000E-01  8.50000000E-01  8.50000000E-01  8.50000000E-01
  7.20000000E-01  7.20000000E-01  7.20000000E-01  7.20000000E-01  7.20000000E-01
  8.50000000E-01  7.20000000E-01  7.20000000E-01  7.20000000E-01  8.50000000E-01
  7.20000000E-01  7.20000000E-01  8.50000000E-01  8.50000000E-01  7.20000000E-01
  7.20000000E-01  7.20000000E-01  8.50000000E-01  7.20000000E-01  7.20000000E-01
  7.20000000E-01  8.50000000E-01  7.20000000E-01  8.50000000E-01  8.50000000E-01
  8.50000000E-01  7.20000000E-01  7.20000000E-01  8.50000000E-01  7.20000000E-01
  7.20000000E-01  8.50000000E-01  7.20000000E-01  8.50000000E-01  8.50000000E-01
  8.50000000E-01  7.20000000E-01  7.20000000E-01  7.20000000E-01  7.20000000E-01
  7.20000000E-01  8.50000000E-01  7.20000000E-01  7.20000000E-01  7.20000000E-01
  8.50000000E-01  7.20000000E-01  7.20000000E-01  8.50000000E-01  8.50000000E-01
  7.20000000E-01  7.20000000E-01  7.20000000E-01  8.50000000E-01  7.20000000E-01
  7.20000000E-01  7.20000000E-01  8.50000000E-01  7.20000000E-01  8.50000000E-01
  8.50000000E-01  8.50000000E-01  7.20000000E-01  7.20000000E-01  8.50000000E-01
  7.20000000E-01  7.20000000E-01  8.50000000E-01  7.20000000E-01  8.50000000E-01
  8.50000000E-01  8.50000000E-01  7.20000000E-01  7.20000000E-01  7.20000000E-01
  7.20000000E-01  7.20000000E-01  8.50000000E-01  7.20000000E-01  7.20000000E-01
  7.20000000E-01  8.50000000E-01  7.20000000E-01  7.20000000E-01  8.50000000E-01
  8.50000000E-01  7.20000000E-01  7.20000000E-01  7.20000000E-01  8.50000000E-01
  7.20000000E-01  7.20000000E-01  7.20000000E-01  8.50000000E-01  7.20000000E-01
  8.50000000E-01  8.50000000E-01  8.50000000E-01  7.20000000E-01  7.20000000E-01
  8.50000000E-01  7.20000000E-01  7.20000000E-01  8.50000000E-01  7.20000000E-01
  8.50000000E-01  8.50000000E-01  8.50000000E-01  7.20000000E-01  7.20000000E-01
  7.20000000E-01  7.20000000E-01  7.20000000E-01  8.50000000E-01  7.20000000E-01
  7.20000000E-01  7.20000000E-01  8.50000000E-01  7.20000000E-01  7.20000000E-01
  8.50000000E-01  8.50000000E-01  7.20000000E-01  7.20000000E-01  7.20000000E-01
  8.50000000E-01  7.20000000E-01  7.20000000E-01  7.20000000E-01  8.50000000E-01
  7.20000000E-01  8.50000000E-01  8.50000000E-01  8.50000000E-01  7.20000000E-01
  7.20000000E-01  8.50000000E-01  7.20000000E-01  7.20000000E-01  8.50000000E-01
  7.20000000E-01  8.50000000E-01  8.50000000E-01  8.50000000E-01  7.20000000E-01
  7.20000000E-01  7.20000000E-01  7.20000000E-01  7.20000000E-01  8.50000000E-01
  7.20000000E-01  7.20000000E-01  7.20000000E-01  8.50000000E-01  7.20000000E-01
  7.20000000E-01  8.50000000E-01  8.50000000E-01  7.20000000E-01  7.20000000E-01
  7.20000000E-01  8.50000000E-01  7.20000000E-01  7.20000000E-01  7.20000000E-01
  8.50000000E-01  7.20000000E-01  8.50000000E-01  8.50000000E-01  8.50000000E-01
  7.20000000E-01  7.20000000E-01  8.50000000E-01  7.20000000E-01  7.20000000E-01
  8.50000000E-01  7.20000000E-01  8.50000000E-01  8.50000000E-01  8.50000000E-01
  7.20000000E-01  7.20000000E-01  7.20000000E-01  7.20000000E-01  7.20000000E-01
  8.50000000E-01  7.20000000E-01  7.20000000E-01  7.20000000E-01  8.50000000E-01
  7.20000000E-01  7.20000000E-01  8.50000000E-01  8.50000000E-01  7.20000000E-01
  7.20000000E-01  7.20000000E-01  8.50000000E-01  7.20000000E-01  7.20000000E-01
  7.20000000E-01  8.50000000E-01  7.20000000E-01  8.50000000E-01  8.50000000E-01
  8.50000000E-01  7.20000000E-01  7.20000000E-01  8.50000000E-01  7.20000000E-01
  7.20000000E-01  8.50000000E-01  7.20000000E-01  8.50000000E-01  8.50000000E-01
  8.50000000E-01  7.20000000E-01  7.20000000E-01  7.20000000E-01  7.20000000E-01
  7.20000000E-01  8.50000000E-01  7.20000000E-01  7.20000000E-01  7.20000000E-01
  8.50000000E-01  7.20000000E-01  7.20000000E-01  8.50000000E-01  8.50000000E-01
  7.20000000E-01  7.20000000E-01  7.20000000E-01  8.50000000E-01  7.20000000E-01
  7.20000000E-01  7.20000000E-01  8.50000000E-01  7.20000000E-01  8.50000000E-01
  8.50000000E-01  8.50000000E-01  7.20000000E-01  7.20000000E-01  8.50000000E-01
  7.20000000E-01  7.20000000E-01  8.50000000E-01  7.20000000E-01  8.50000000E-01
  8.50000000E-01  8.50000000E-01  7.20000000E-01  7.20000000E-01  7.20000000E-01
  7.20000000E-01  7.20000000E-01  8.50000000E-01  7.20000000E-01  7.20000000E-01
  7.20000000E-01  8.50000000E-01  7.20000000E-01  7.20000000E-01  8.50000000E-01
  8.50000000E-01  7.20000000E-01  7.20000000E-01  7.20000000E-01  8.50000000E-01
  7.20000000E-01  7.20000000E-01  7.20000000E-01  8.50000000E-01  7.20000000E-01
  8.50000000E-01  8.50000000E-01  8.50000000E-01  7.20000000E-01  7.20000000E-01
  8.50000000E-01  7.20000000E-01  7.20000000E-01  8.50000000E-01  7.20000000E-01
  8.50000000E-01  8.50000000E-01  8.50000000E-01  7.20000000E-01  7.20000000E-01
  7.20000000E-01  7.20000000E-01  7.20000000E-01  8.50000000E-01  7.20000000E-01
  7.20000000E-01  7.20000000E-01  8.50000000E-01  7.20000000E-01  7.20000000E-01
  8.50000000E-01  8.50000000E-01  7.20000000E-01  7.20000000E-01  7.20000000E-01
  8.50000000E-01  7.20000000E-01  7.20000000E-01  7.20000000E-01  8.50000000E-01
  7.20000000E-01  8.50000000E-01  8.50000000E-01  8.50000000E-01  7.20000000E-01
  7.20000000E-01  8.50000000E-01  7.20000000E-01  7.20000000E-01  8.50000000E-01
  7.20000000E-01  8.50000000E-01  8.50000000E-01  8.50000000E-01  7.20000000E-01
  7.20000000E-01  7.20000000E-01  7.20000000E-01  7.20000000E-01  8.50000000E-01
  7.20000000E-01  7.20000000E-01  7.20000000E-01  8.50000000E-01  7.20000000E-01
  7.20000000E-01  8.50000000E-01  8.50000000E-01  7.20000000E-01  7.20000000E-01
  7.20000000E-01  8.50000000E-01  7.20000000E-01  7.20000000E-01  7.20000000E-01
  8.50000000E-01  7.20000000E-01  8.50000000E-01  8.50000000E-01  8.50000000E-01
  7.20000000E-01  7.20000000E-01  8.50000000E-01  7.20000000E-01  7.20000000E-01
  8.50000000E-01  7.20000000E-01  8.50000000E-01  8.50000000E-01  8.50000000E-01
  7.20000000E-01  7.20000000E-01  7.20000000E-01  7.20000000E-01  7.20000000E-01
  8.50000000E-01  7.20000000E-01  7.20000000E-01  7.20000000E-01  8.50000000E-01
  7.20000000E-01  7.20000000E-01  8.50000000E-01  8.50000000E-01  7.20000000E-01
  7.20000000E-01  7.20000000E-01  8.50000000E-01  7.20000000E-01  7.20000000E-01
  7.20000000E-01  8.50000000E-01  7.20000000E-01  8.50000000E-01  8.50000000E-01
  8.50000000E-01  7.20000000E-01  7.20000000E-01  8.50000000E-01  7.20000000E-01
  7.20000000E-01  8.50000000E-01  7.20000000E-01  8.50000000E-01  8.50000000E-01
  8.50000000E-01  7.20000000E-01  7.20000000E-01  7.20000000E-01  7.20000000E-01
  7.20000000E-01  8.50000000E-01  7.20000000E-01  7.20000000E-01  7.20000000E-01
  8.50000000E-01  7.20000000E-01  7.20000000E-01  8.50000000E-01  8.50000000E-01
  7.20000000E-01  7.20000000E-01  7.20000000E-01  8.50000000E-01  7.20000000E-01
  7.20000000E-01  7.20000000E-01  8.50000000E-01  7.20000000E-01  8.50000000E-01
  8.50000000E-01  8.50000000E-01  7.20000000E-01  7.20000000E-01  8.50000000E-01
  7.20000000E-01  7.20000000E-01  8.50000000E-01  7.20000000E-01  8.50000000E-01
  8.50000000E-01  8.50000000E-01  7.20000000E-01  7.20000000E-01  7.20000000E-01
  7.20000000E-01  7.20000000E-01  8.50000000E-01  7.20000000E-01  7.20000000E-01
  7.20000000E-01  8.50000000E-01  7.20000000E-01  7.20000000E-01  8.50000000E-01
  8.50000000E-01  7.20000000E-01  7.20000000E-01  7.20000000E-01  8.50000000E-01
  7.20000000E-01  7.20000000E-01  7.20000000E-01  8.50000000E-01  7.20000000E-01
  8.50000000E-01  8.50000000E-01  8.50000000E-01  7.20000000E-01  7.20000000E-01
  8.50000000E-01  7.20000000E-01  7.20000000E-01  8.50000000E-01  7.20000000E-01
  8.50000000E-01  8.50000000E-01  8.50000000E-01  7.20000000E-01  7.20000000E-01
  7.20000000E-01  7.20000000E-01  7.20000000E-01  8.50000000E-01  7.20000000E-01
  7.20000000E-01  7.20000000E-01  8.50000000E-01  7.20000000E-01  7.20000000E-01
  8.50000000E-01  8.50000000E-01  7.20000000E-01  7.20000000E-01  7.20000000E-01
  8.50000000E-01  7.20000000E-01  7.20000000E-01  7.20000000E-01  8.50000000E-01
  7.20000000E-01  8.50000000E-01  8.50000000E-01  8.50000000E-01  7.20000000E-01
  7.20000000E-01  8.50000000E-01  7.20000000E-01  7.20000000E-01  8.50000000E-01
  7.20000000E-01  8.50000000E-01  8.50000000E-01  8.50000000E-01  7.20000000E-01
  7.20000000E-01  7.20000000E-01  7.20000000E-01  7.20000000E-01  8.50000000E-01
  7.20000000E-01  7.20000000E-01  7.20000000E-01  8.50000000E-01  7.20000000E-01
  7.20000000E-01  8.50000000E-01  8.50000000E-01  7.20000000E-01  7.20000000E-01
  7.20000000E-01  8.50000000E-01  7.20000000E-01  7.20000000E-01  7.20000000E-01
  8.50000000E-01  7.20000000E-01  8.50000000E-01  8.50000000E-01  8.50000000E-01
  7.20000000E-01  7.20000000E-01  8.50000000E-01  7.20000000E-01  7.20000000E-01
  8.50000000E-01  7.20000000E-01  8.50000000E-01  8.50000000E-01  8.50000000E-01
  7.20000000E-01  7.20000000E-01  7.20000000E-01  7.20000000E-01  7.20000000E-01
  8.50000000E-01  7.20000000E-01  7.20000000E-01  7.20000000E-01  8.50000000E-01
  7.20000000E-01  7.20000000E-01  8.50000000E-01  8.50000000E-01  7.20000000E-01
  7.20000000E-01  7.20000000E-01  8.50000000E-01  7.20000000E-01  7.20000000E-01
  7.20000000E-01  8.50000000E-01  7.20000000E-01  8.50000000E-01  8.50000000E-01
  8.50000000E-01  7.20000000E-01  7.20000000E-01  8.50000000E-01  7.20000000E-01
  7.20000000E-01  8.50000000E-01  7.20000000E-01  8.50000000E-01  8.50000000E-01
  8.50000000E-01  7.20000000E-01  7.20000000E-01  7.20000000E-01  7.20000000E-01
  7.20000000E-01  8.50000000E-01  7.20000000E-01  7.20000000E-01  7.20000000E-01
  8.50000000E-01  7.20000000E-01  7.20000000E-01  8.50000000E-01  8.50000000E-01
  7.20000000E-01  7.20000000E-01  7.20000000E-01  8.50000000E-01  7.20000000E-01
  7.20000000E-01  7.20000000E-01  8.50000000E-01  7.20000000E-01  8.50000000E-01
  8.50000000E-01  8.50000000E-01  7.20000000E-01  7.20000000E-01  8.50000000E-01
  7.20000000E-01  7.20000000E-01  8.50000000E-01  7.20000000E-01  8.50000000E-01
  8.50000000E-01  8.50000000E-01  7.20000000E-01  7.20000000E-01  7.20000000E-01
  7.20000000E-01  7.20000000E-01  8.50000000E-01  7.20000000E-01  7.20000000E-01
  7.20000000E-01  8.50000000E-01  7.20000000E-01  7.20000000E-01  8.50000000E-01
  8.50000000E-01  7.20000000E-01  7.20000000E-01  7.20000000E-01  8.50000000E-01
  7.20000000E-01  7.20000000E-01  7.20000000E-01  8.50000000E-01  7.20000000E-01
  8.50000000E-01  8.50000000E-01  8.50000000E-01  7.20000000E-01  7.20000000E-01
  8.50000000E-01  7.20000000E-01  7.20000000E-01  8.50000000E-01  7.20000000E-01
  8.50000000E-01  8.50000000E-01  8.50000000E-01  7.20000000E-01  7.20000000E-01
  7.20000000E-01  7.20000000E-01  7.20000000E-01  8.50000000E-01  7.20000000E-01
  7.20000000E-01  7.20000000E-01  8.50000000E-01  7.20000000E-01  7.20000000E-01
  8.50000000E-01  8.50000000E-01  7.20000000E-01  7.20000000E-01  7.20000000E-01
  8.50000000E-01  7.20000000E-01  7.20000000E-01  7.20000000E-01  8.50000000E-01
  7.20000000E-01  8.50000000E-01  8.50000000E-01  8.50000000E-01  7.20000000E-01
  7.20000000E-01  8.50000000E-01  7.20000000E-01  7.20000000E-01  8.50000000E-01
  7.20000000E-01  8.50000000E-01  8.50000000E-01  8.50000000E-01  7.20000000E-01
  7.20000000E-01  7.20000000E-01  7.20000000E-01  7.20000000E-01  8.50000000E-01
  7.20000000E-01  7.20000000E-01  7.20000000E-01  8.50000000E-01  7.20000000E-01
  7.20000000E-01  8.50000000E-01  8.50000000E-01  7.20000000E-01  7.20000000E-01
  7.20000000E-01  8.50000000E-01  7.20000000E-01  7.20000000E-01  7.20000000E-01
  8.50000000E-01  7.20000000E-01  8.50000000E-01  8.50000000E-01  8.50000000E-01
  7.20000000E-01  7.20000000E-01  8.50000000E-01  7.20000000E-01  7.20000000E-01
  8.50000000E-01  7.20000000E-01  8.50000000E-01  8.50000000E-01  8.50000000E-01
  7.20000000E-01  7.20000000E-01  7.20000000E-01  7.20000000E-01  7.20000000E-01
  8.50000000E-01  7.20000000E-01  7.20000000E-01  7.20000000E-01  8.50000000E-01
  7.20000000E-01  7.20000000E-01  8.50000000E-01  8.50000000E-01  7.20000000E-01
  7.20000000E-01  7.20000000E-01  8.50000000E-01  7.20000000E-01  7.20000000E-01
  7.20000000E-01  8.50000000E-01  7.20000000E-01  8.50000000E-01  8.50000000E-01
  8.50000000E-01  7.20000000E-01  7.20000000E-01  8.50000000E-01  7.20000000E-01
  7.20000000E-01  8.50000000E-01  7.20000000E-01  8.50000000E-01  8.50000000E-01
  8.50000000E-01  7.20000000E-01  7.20000000E-01  7.20000000E-01  7.20000000E-01
  7.20000000E-01  8.50000000E-01  7.20000000E-01  7.20000000E-01  7.20000000E-01
  8.50000000E-01  7.20000000E-01  7.20000000E-01  8.50000000E-01  8.50000000E-01
  7.20000000E-01  7.20000000E-01  7.20000000E-01  8.50000000E-01  7.20000000E-01
  7.20000000E-01  7.20000000E-01  8.50000000E-01  7.20000000E-01  8.50000000E-01
  8.50000000E-01  8.50000000E-01  7.20000000E-01  7.20000000E-01  8.50000000E-01
  7.20000000E-01  7.20000000E-01  8.50000000E-01  7.20000000E-01  8.50000000E-01
  8.50000000E-01  8.50000000E-01  7.20000000E-01  7.20000000E-01  7.20000000E-01
  7.20000000E-01  7.20000000E-01  8.50000000E-01  7.20000000E-01  7.20000000E-01
  7.20000000E-01  8.50000000E-01  7.20000000E-01  7.20000000E-01  8.50000000E-01
  8.50000000E-01  7.20000000E-01  7.20000000E-01  7.20000000E-01  8.50000000E-01
  7.20000000E-01  7.20000000E-01  7.20000000E-01  8.50000000E-01  7.20000000E-01
  8.50000000E-01  8.50000000E-01  8.50000000E-01  7.20000000E-01  7.20000000E-01
  8.50000000E-01  7.20000000E-01  7.20000000E-01  8.50000000E-01  7.20000000E-01
  8.50000000E-01  8.50000000E-01  8.50000000E-01  7.20000000E-01  7.20000000E-01
  7.20000000E-01  7.20000000E-01  7.20000000E-01  8.50000000E-01  7.20000000E-01
  7.20000000E-01  7.20000000E-01  8.50000000E-01  7.20000000E-01  7.20000000E-01
  8.50000000E-01  8.50000000E-01  7.20000000E-01  7.20000000E-01  7.20000000E-01
  8.50000000E-01  7.20000000E-01  7.20000000E-01  7.20000000E-01  8.50000000E-01
  7.20000000E-01  8.50000000E-01  8.50000000E-01  8.50000000E-01  7.20000000E-01
  7.20000000E-01  8.50000000E-01  7.20000000E-01  7.20000000E-01  8.50000000E-01
  7.20000000E-01  8.50000000E-01  8.50000000E-01  8.50000000E-01  7.20000000E-01
  7.20000000E-01  7.20000000E-01  7.20000000E-01  7.20000000E-01  8.50000000E-01
  7.20000000E-01  7.20000000E-01  7.20000000E-01  8.50000000E-01  7.20000000E-01
  7.20000000E-01  8.50000000E-01  8.50000000E-01  7.20000000E-01  7.20000000E-01
  7.20000000E-01  8.50000000E-01  7.20000000E-01  7.20000000E-01  7.20000000E-01
  8.50000000E-01  7.20000000E-01  8.50000000E-01  8.50000000E-01  8.50000000E-01
  7.20000000E-01  7.20000000E-01  8.50000000E-01  7.20000000E-01  7.20000000E-01
  8.50000000E-01  7.20000000E-01  8.50000000E-01  8.50000000E-01  8.50000000E-01
  7.20000000E-01  7.20000000E-01  7.20000000E-01  7.20000000E-01  7.20000000E-01
  8.50000000E-01  7.20000000E-01  7.20000000E-01  7.20000000E-01  8.50000000E-01
  7.20000000E-01  7.20000000E-01  8.50000000E-01  8.50000000E-01  7.20000000E-01
  7.20000000E-01  7.20000000E-01  8.50000000E-01  7.20000000E-01  7.20000000E-01
  7.20000000E-01  8.50000000E-01  7.20000000E-01  8.50000000E-01  8.50000000E-01
  8.50000000E-01  7.20000000E-01  7.20000000E-01  8.50000000E-01  7.20000000E-01
  7.20000000E-01  8.50000000E-01  7.20000000E-01  8.50000000E-01  8.50000000E-01
  8.50000000E-01  7.20000000E-01  7.20000000E-01  7.20000000E-01  7.20000000E-01
  7.20000000E-01  8.50000000E-01  7.20000000E-01  7.20000000E-01  7.20000000E-01
  8.50000000E-01  7.20000000E-01  7.20000000E-01  8.50000000E-01  8.50000000E-01
  7.20000000E-01  7.20000000E-01  7.20000000E-01  8.50000000E-01  7.20000000E-01
  7.20000000E-01  7.20000000E-01  8.50000000E-01  7.20000000E-01  8.50000000E-01
  8.50000000E-01  8.50000000E-01  7.20000000E-01  7.20000000E-01  8.50000000E-01
  7.20000000E-01  7.20000000E-01  8.50000000E-01  7.20000000E-01  8.50000000E-01
  8.50000000E-01  8.50000000E-01  7.20000000E-01  7.20000000E-01  7.20000000E-01
  7.20000000E-01  7.20000000E-01  8.50000000E-01  7.20000000E-01  7.20000000E-01
  7.20000000E-01  8.50000000E-01  7.20000000E-01  7.20000000E-01  8.50000000E-01
  8.50000000E-01  7.20000000E-01  7.20000000E-01  7.20000000E-01  8.50000000E-01
  7.20000000E-01  7.20000000E-01  7.20000000E-01  8.50000000E-01  7.20000000E-01
  8.50000000E-01  8.50000000E-01  8.50000000E-01  7.20000000E-01  7.20000000E-01
  8.50000000E-01  7.20000000E-01  7.20000000E-01  8.50000000E-01  7.20000000E-01
  8.50000000E-01  8.50000000E-01  8.50000000E-01  7.20000000E-01  7.20000000E-01
  7.20000000E-01  7.20000000E-01  7.20000000E-01  8.50000000E-01  7.20000000E-01
  7.20000000E-01  7.20000000E-01  8.50000000E-01  7.20000000E-01  7.20000000E-01
  8.50000000E-01  8.50000000E-01  7.20000000E-01  7.20000000E-01  7.20000000E-01
  8.50000000E-01  7.20000000E-01  7.20000000E-01  7.20000000E-01  8.50000000E-01
  7.20000000E-01  8.50000000E-01  8.50000000E-01  8.50000000E-01  7.20000000E-01
  7.20000000E-01  8.50000000E-01  7.20000000E-01  7.20000000E-01  8.50000000E-01
  7.20000000E-01  8.50000000E-01  8.50000000E-01  8.50000000E-01  7.20000000E-01
  7.20000000E-01  7.20000000E-01  7.20000000E-01  7.20000000E-01  8.50000000E-01
  7.20000000E-01  7.20000000E-01  7.20000000E-01  8.50000000E-01  7.20000000E-01
  7.20000000E-01  8.50000000E-01  8.50000000E-01  7.20000000E-01  7.20000000E-01
  7.20000000E-01  8.50000000E-01  7.20000000E-01  7.20000000E-01  7.20000000E-01
  8.50000000E-01  7.20000000E-01  8.50000000E-01  8.50000000E-01  8.50000000E-01
  7.20000000E-01  7.20000000E-01  8.50000000E-01  7.20000000E-01  7.20000000E-01
  8.50000000E-01  7.20000000E-01  8.50000000E-01  8.50000000E-01  8.50000000E-01
  7.20000000E-01  7.20000000E-01  7.20000000E-01  7.20000000E-01  7.20000000E-01
  8.50000000E-01  7.20000000E-01  7.20000000E-01  7.20000000E-01  8.50000000E-01
  7.20000000E-01  7.20000000E-01  8.50000000E-01  8.50000000E-01  7.20000000E-01
  7.20000000E-01  7.20000000E-01  8.50000000E-01  7.20000000E-01  7.20000000E-01
  7.20000000E-01  8.50000000E-01  7.20000000E-01  8.50000000E-01  8.50000000E-01
  8.50000000E-01  7.20000000E-01  7.20000000E-01  8.50000000E-01  7.20000000E-01
  7.20000000E-01  8.50000000E-01  7.20000000E-01  8.50000000E-01  8.50000000E-01
  8.50000000E-01  7.20000000E-01  7.20000000E-01  7.20000000E-01  7.20000000E-01
  7.20000000E-01  8.50000000E-01  7.20000000E-01  7.20000000E-01  7.20000000E-01
  8.50000000E-01  7.20000000E-01  7.20000000E-01  8.50000000E-01  8.50000000E-01
  7.20000000E-01  7.20000000E-01  7.20000000E-01  8.50000000E-01  7.20000000E-01
  7.20000000E-01  7.20000000E-01  8.50000000E-01  7.20000000E-01  8.50000000E-01
  8.50000000E-01  8.50000000E-01  7.20000000E-01  7.20000000E-01  8.50000000E-01
  7.20000000E-01  7.20000000E-01  8.50000000E-01  7.20000000E-01  8.50000000E-01
  8.50000000E-01  8.50000000E-01  7.20000000E-01  7.20000000E-01  7.20000000E-01
  7.20000000E-01  7.20000000E-01  8.50000000E-01  7.20000000E-01  7.20000000E-01
  7.20000000E-01  8.50000000E-01  7.20000000E-01  7.20000000E-01  8.50000000E-01
  8.50000000E-01  7.20000000E-01  7.20000000E-01  7.20000000E-01  8.50000000E-01
  7.20000000E-01  7.20000000E-01  7.20000000E-01  8.50000000E-01  7.20000000E-01
  8.50000000E-01  8.50000000E-01  8.50000000E-01  7.20000000E-01  7.20000000E-01
  8.50000000E-01  7.20000000E-01  7.20000000E-01  8.50000000E-01  7.20000000E-01
  8.50000000E-01  8.50000000E-01  8.50000000E-01  7.20000000E-01  7.20000000E-01
  7.20000000E-01  7.20000000E-01  7.20000000E-01  8.50000000E-01  7.20000000E-01
  7.20000000E-01  7.20000000E-01  8.50000000E-01  7.20000000E-01  7.20000000E-01
  8.50000000E-01  8.50000000E-01  7.20000000E-01  7.20000000E-01  7.20000000E-01
  8.50000000E-01  7.20000000E-01  7.20000000E-01  7.20000000E-01  8.50000000E-01
  7.20000000E-01  8.50000000E-01  8.50000000E-01  8.50000000E-01  7.20000000E-01
  7.20000000E-01  8.50000000E-01  7.20000000E-01  7.20000000E-01  8.50000000E-01
  7.20000000E-01  8.50000000E-01  8.50000000E-01  8.50000000E-01  7.20000000E-01
  7.20000000E-01  7.20000000E-01  7.20000000E-01  7.20000000E-01  8.50000000E-01
  7.20000000E-01  7.20000000E-01  7.20000000E-01  8.50000000E-01  7.20000000E-01
  7.20000000E-01  8.50000000E-01  8.50000000E-01  7.20000000E-01  7.20000000E-01
  7.20000000E-01  8.50000000E-01  7.20000000E-01  7.20000000E-01  7.20000000E-01
  8.50000000E-01  7.20000000E-01  8.50000000E-01  8.50000000E-01  8.50000000E-01
  7.20000000E-01  7.20000000E-01  8.50000000E-01  7.20000000E-01  7.20000000E-01
  8.50000000E-01  7.20000000E-01  8.50000000E-01  8.50000000E-01  8.50000000E-01
  7.20000000E-01  7.20000000E-01  7.20000000E-01  7.20000000E-01  7.20000000E-01
  8.50000000E-01  7.20000000E-01  7.20000000E-01  7.20000000E-01  8.50000000E-01
  7.20000000E-01  7.20000000E-01  8.50000000E-01  8.50000000E-01  7.20000000E-01
  7.20000000E-01  7.20000000E-01  8.50000000E-01  7.20000000E-01  7.20000000E-01
  7.20000000E-01  8.50000000E-01  7.20000000E-01  8.50000000E-01  8.50000000E-01
  8.50000000E-01  7.20000000E-01  7.20000000E-01  8.50000000E-01  7.20000000E-01
  7.20000000E-01  8.50000000E-01  7.20000000E-01  8.50000000E-01  8.50000000E-01
  8.50000000E-01  7.20000000E-01  7.20000000E-01  7.20000000E-01  7.20000000E-01
  7.20000000E-01  8.50000000E-01  7.20000000E-01  7.20000000E-01  7.20000000E-01
  8.50000000E-01  7.20000000E-01  7.20000000E-01  8.50000000E-01  8.50000000E-01
  7.20000000E-01  7.20000000E-01  7.20000000E-01  8.50000000E-01  7.20000000E-01
  7.20000000E-01  7.20000000E-01  8.50000000E-01  7.20000000E-01  8.50000000E-01
  8.50000000E-01  8.50000000E-01  7.20000000E-01  7.20000000E-01  8.50000000E-01
  7.20000000E-01  7.20000000E-01  8.50000000E-01  7.20000000E-01  8.50000000E-01
  8.50000000E-01  8.50000000E-01  7.20000000E-01  7.20000000E-01  7.20000000E-01
  7.20000000E-01  7.20000000E-01  8.50000000E-01  7.20000000E-01  7.20000000E-01
  7.20000000E-01  8.50000000E-01  7.20000000E-01  7.20000000E-01  8.50000000E-01
  8.50000000E-01  7.20000000E-01  7.20000000E-01  7.20000000E-01  8.50000000E-01
  7.20000000E-01  7.20000000E-01  7.20000000E-01  8.50000000E-01  7.20000000E-01
  8.50000000E-01  8.50000000E-01  8.50000000E-01  7.20000000E-01  7.20000000E-01
  8.50000000E-01  7.20000000E-01  7.20000000E-01  8.50000000E-01  7.20000000E-01
  8.50000000E-01  8.50000000E-01  8.50000000E-01  7.20000000E-01  7.20000000E-01
  7.20000000E-01  7.20000000E-01  7.20000000E-01  8.50000000E-01  7.20000000E-01
  7.20000000E-01  7.20000000E-01  8.50000000E-01  7.20000000E-01  7.20000000E-01
  8.50000000E-01  8.50000000E-01  7.20000000E-01  7.20000000E-01  7.20000000E-01
  8.50000000E-01  7.20000000E-01  7.20000000E-01  7.20000000E-01  8.50000000E-01
  7.20000000E-01  8.50000000E-01  8.50000000E-01  8.50000000E-01  7.20000000E-01
  7.20000000E-01  8.50000000E-01  7.20000000E-01  7.20000000E-01  8.50000000E-01
  7.20000000E-01  8.50000000E-01  8.50000000E-01  8.50000000E-01  7.20000000E-01
  7.20000000E-01  7.20000000E-01  7.20000000E-01  7.20000000E-01  8.50000000E-01
  7.20000000E-01  7.20000000E-01  7.20000000E-01  8.50000000E-01  7.20000000E-01
  7.20000000E-01  8.50000000E-01  8.50000000E-01  7.20000000E-01  7.20000000E-01
  7.20000000E-01  8.50000000E-01  7.20000000E-01  7.20000000E-01  7.20000000E-01
  8.50000000E-01  7.20000000E-01  8.50000000E-01  8.50000000E-01  8.50000000E-01
  7.20000000E-01  7.20000000E-01  8.50000000E-01  7.20000000E-01  7.20000000E-01
  8.50000000E-01  7.20000000E-01  8.50000000E-01  8.50000000E-01  8.50000000E-01
  7.20000000E-01  7.20000000E-01  7.20000000E-01  7.20000000E-01  7.20000000E-01
  8.50000000E-01  7.20000000E-01  7.20000000E-01  7.20000000E-01  8.50000000E-01
  7.20000000E-01  7.20000000E-01  8.50000000E-01  8.50000000E-01  7.20000000E-01
  7.20000000E-01  7.20000000E-01  8.50000000E-01  7.20000000E-01  7.20000000E-01
  7.20000000E-01  8.50000000E-01  7.20000000E-01  8.50000000E-01  8.50000000E-01
  8.50000000E-01  7.20000000E-01  7.20000000E-01  8.50000000E-01  7.20000000E-01
  7.20000000E-01  8.50000000E-01  7.20000000E-01  8.50000000E-01  8.50000000E-01
  8.50000000E-01  7.20000000E-01  7.20000000E-01  7.20000000E-01  7.20000000E-01
  7.20000000E-01  8.50000000E-01  7.20000000E-01  7.20000000E-01  7.20000000E-01
  8.50000000E-01  7.20000000E-01  7.20000000E-01  8.50000000E-01  8.50000000E-01
  7.20000000E-01  7.20000000E-01  7.20000000E-01  8.50000000E-01  7.20000000E-01
  7.20000000E-01  7.20000000E-01  8.50000000E-01  7.20000000E-01  8.50000000E-01
  8.50000000E-01  8.50000000E-01  7.20000000E-01  7.20000000E-01  8.50000000E-01
  7.20000000E-01  7.20000000E-01  8.50000000E-01  7.20000000E-01  8.50000000E-01
  8.50000000E-01  8.50000000E-01  7.20000000E-01  7.20000000E-01  7.20000000E-01
  7.20000000E-01  7.20000000E-01  8.50000000E-01  7.20000000E-01  7.20000000E-01
  7.20000000E-01  8.50000000E-01  7.20000000E-01  7.20000000E-01  8.50000000E-01
  8.50000000E-01  7.20000000E-01  7.20000000E-01  7.20000000E-01  8.50000000E-01
  7.20000000E-01  7.20000000E-01  7.20000000E-01  8.50000000E-01  7.20000000E-01
  8.50000000E-01  8.50000000E-01  8.50000000E-01  7.20000000E-01  7.20000000E-01
  8.50000000E-01  7.20000000E-01  7.20000000E-01  8.50000000E-01  7.20000000E-01
  8.50000000E-01  8.50000000E-01  8.50000000E-01  7.20000000E-01  7.20000000E-01
  7.20000000E-01  7.20000000E-01  7.20000000E-01  8.50000000E-01  7.20000000E-01
  7.20000000E-01  7.20000000E-01  8.50000000E-01  7.20000000E-01  7.20000000E-01
  8.50000000E-01  8.50000000E-01  7.20000000E-01  7.20000000E-01  7.20000000E-01
  8.50000000E-01  7.20000000E-01  7.20000000E-01  7.20000000E-01  8.50000000E-01
  7.20000000E-01  8.50000000E-01  8.50000000E-01  8.50000000E-01  7.20000000E-01
  7.20000000E-01  8.50000000E-01  7.20000000E-01  7.20000000E-01  8.50000000E-01
  7.20000000E-01  8.50000000E-01  8.50000000E-01  8.50000000E-01  7.20000000E-01
  7.20000000E-01  7.20000000E-01  7.20000000E-01  7.20000000E-01  8.50000000E-01
  7.20000000E-01  7.20000000E-01  7.20000000E-01  8.50000000E-01  7.20000000E-01
  7.20000000E-01  8.50000000E-01  8.50000000E-01  7.20000000E-01  7.20000000E-01
  7.20000000E-01  8.50000000E-01  7.20000000E-01  7.20000000E-01  7.20000000E-01
  8.50000000E-01  7.20000000E-01  8.50000000E-01  8.50000000E-01  8.50000000E-01
  7.20000000E-01  7.20000000E-01  8.50000000E-01  7.20000000E-01  7.20000000E-01
  8.50000000E-01  7.20000000E-01  8.50000000E-01  8.50000000E-01  8.50000000E-01
  7.20000000E-01  7.20000000E-01  7.20000000E-01  7.20000000E-01  7.20000000E-01
  8.50000000E-01  7.20000000E-01  7.20000000E-01  7.20000000E-01  8.50000000E-01
  7.20000000E-01  7.20000000E-01  8.50000000E-01  8.50000000E-01  7.20000000E-01
  7.20000000E-01  7.20000000E-01  8.50000000E-01  7.20000000E-01  7.20000000E-01
  7.20000000E-01  8.50000000E-01  7.20000000E-01  8.50000000E-01  8.50000000E-01
  8.50000000E-01  7.20000000E-01  7.20000000E-01  8.50000000E-01  7.20000000E-01
  7.20000000E-01  8.50000000E-01  7.20000000E-01  8.50000000E-01  8.50000000E-01
  8.50000000E-01  7.20000000E-01  7.20000000E-01  7.20000000E-01  7.20000000E-01
  7.20000000E-01  8.50000000E-01  7.20000000E-01  7.20000000E-01  7.20000000E-01
  8.50000000E-01  7.20000000E-01  7.20000000E-01  8.50000000E-01  8.50000000E-01
  7.20000000E-01  7.20000000E-01  7.20000000E-01  8.50000000E-01  7.20000000E-01
  7.20000000E-01  7.20000000E-01  8.50000000E-01  7.20000000E-01  8.50000000E-01
  8.50000000E-01  8.50000000E-01  7.20000000E-01  7.20000000E-01  8.50000000E-01
  7.20000000E-01  7.20000000E-01  8.50000000E-01  7.20000000E-01  8.50000000E-01
  8.50000000E-01  8.50000000E-01  7.20000000E-01  7.20000000E-01  7.20000000E-01
  7.20000000E-01  7.20000000E-01  8.50000000E-01  7.20000000E-01  7.20000000E-01
  7.20000000E-01  8.50000000E-01  7.20000000E-01  7.20000000E-01  8.50000000E-01
  8.50000000E-01  7.20000000E-01  7.20000000E-01  7.20000000E-01  8.50000000E-01
  7.20000000E-01  7.20000000E-01  7.20000000E-01  8.50000000E-01  7.20000000E-01
  8.50000000E-01  8.50000000E-01  8.50000000E-01  7.20000000E-01  7.20000000E-01
  8.50000000E-01  7.20000000E-01  7.20000000E-01  8.50000000E-01  7.20000000E-01
  8.50000000E-01  8.50000000E-01  8.50000000E-01  7.20000000E-01  7.20000000E-01
  7.20000000E-01  7.20000000E-01  7.20000000E-01  8.50000000E-01  7.20000000E-01
  7.20000000E-01  7.20000000E-01  8.50000000E-01  7.20000000E-01  7.20000000E-01
  8.50000000E-01  8.50000000E-01  7.20000000E-01  7.20000000E-01  7.20000000E-01
  8.50000000E-01  7.20000000E-01  7.20000000E-01  7.20000000E-01  8.50000000E-01
  7.20000000E-01  8.50000000E-01  8.50000000E-01  8.50000000E-01  7.20000000E-01
  7.20000000E-01  8.50000000E-01  7.20000000E-01  7.20000000E-01  8.50000000E-01
  7.20000000E-01  8.50000000E-01  8.50000000E-01  8.50000000E-01
%FLAG IPOL                                                                      
%FORMAT(1I8)                                                                    
       0
