Generated by cif2gro.py
 1944
    1MOL     C1    1   0.778   0.944   0.568
    1MOL     C2    2   0.680   0.944   0.670
    1MOL     C3    3   0.903   0.871   0.591
    1MOL     C4    4   0.761   1.012   0.446
    1MOL     C5    5   0.700   0.878   0.790
    1MOL     H6    6   0.599   0.991   0.655
    1MOL     C7    7   0.920   0.803   0.713
    1MOL     C8    8   1.000   0.870   0.491
    1MOL     C9    9   0.859   1.011   0.346
    1MOL    H10   10   0.680   1.059   0.433
    1MOL    C11   11   0.601   0.880   0.893
    1MOL    C12   12   0.823   0.806   0.812
    1MOL    H13   13   1.000   0.754   0.729
    1MOL    H14   14   1.082   0.823   0.504
    1MOL    C15   15   0.983   0.938   0.369
    1MOL    C16   16   0.842   1.079   0.224
    1MOL    C17   17   0.622   0.816   1.011
    1MOL    H18   18   0.520   0.927   0.880
    1MOL    C19   19   0.840   0.740   0.938
    1MOL    C20   20   1.082   0.938   0.267
    1MOL    C21   21   0.939   1.076   0.125
    1MOL    H22   22   0.762   1.128   0.209
    1MOL    C23   23   0.744   0.744   1.034
    1MOL    H24   24   0.556   0.818   1.078
    1MOL    H25   25   0.920   0.692   0.954
    1MOL    H26   26   1.163   0.891   0.282
    1MOL    C27   27   1.062   1.004   0.147
    1MOL    C28   28   0.922   1.142  -0.001
    1MOL    H29   29   0.758   0.700   1.116
    1MOL    C30   30   1.161   1.002   0.044
    1MOL    C31   31   1.018   1.138  -0.097
    1MOL    H32   32   0.842   1.190  -0.017
    1MOL    C33   33   1.140   1.066  -0.074
    1MOL    H34   34   1.242   0.955   0.057
    1MOL    H35   35   1.004   1.182  -0.179
    1MOL    H36   36   1.206   1.064  -0.141
    2MOL     C1   37   0.960   0.498   1.775
    2MOL     C2   38   1.058   0.498   1.673
    2MOL     C3   39   0.835   0.571   1.752
    2MOL     C4   40   0.977   0.430   1.896
    2MOL     C5   41   1.039   0.564   1.553
    2MOL     H6   42   1.140   0.451   1.688
    2MOL     C7   43   0.818   0.639   1.629
    2MOL     C8   44   0.738   0.572   1.852
    2MOL     C9   45   0.879   0.431   1.997
    2MOL    H10   46   1.058   0.383   1.909
    2MOL    C11   47   1.137   0.562   1.449
    2MOL    C12   48   0.916   0.636   1.530
    2MOL    H13   49   0.738   0.688   1.614
    2MOL    H14   50   0.656   0.619   1.839
    2MOL    C15   51   0.755   0.504   1.973
    2MOL    C16   52   0.896   0.363   2.119
    2MOL    C17   53   1.116   0.626   1.332
    2MOL    H18   54   1.219   0.515   1.463
    2MOL    C19   55   0.898   0.702   1.405
    2MOL    C20   56   0.656   0.504   2.075
    2MOL    C21   57   0.799   0.366   2.218
    2MOL    H22   58   0.976   0.314   2.134
    2MOL    C23   59   0.994   0.698   1.309
    2MOL    H24   60   1.183   0.624   1.264
    2MOL    H25   61   0.818   0.750   1.388
    2MOL    H26   62   0.575   0.551   2.061
    2MOL    C27   63   0.676   0.438   2.195
    2MOL    C28   64   0.816   0.300   2.343
    2MOL    H29   65   0.980   0.742   1.226
    2MOL    C30   66   0.578   0.440   2.299
    2MOL    C31   67   0.721   0.304   2.439
    2MOL    H32   68   0.897   0.252   2.360
    2MOL    C33   69   0.599   0.376   2.416
    2MOL    H34   70   0.496   0.487   2.286
    2MOL    H35   71   0.734   0.260   2.522
    2MOL    H36   72   0.532   0.378   2.484
    3MOL     C1   73   0.805   0.831   3.379
    3MOL     C2   74   0.707   0.832   3.481
    3MOL     C3   75   0.929   0.758   3.402
    3MOL     C4   76   0.788   0.899   3.258
    3MOL     C5   77   0.726   0.766   3.601
    3MOL     H6   78   0.625   0.879   3.467
    3MOL     C7   79   0.946   0.691   3.525
    3MOL     C8   80   1.027   0.758   3.302
    3MOL     C9   81   0.886   0.899   3.157
    3MOL    H10   82   0.707   0.947   3.245
    3MOL    C11   83   0.628   0.768   3.705
    3MOL    C12   84   0.849   0.693   3.624
    3MOL    H13   85   1.027   0.642   3.540
    3MOL    H14   86   1.108   0.711   3.315
    3MOL    C15   87   1.010   0.826   3.181
    3MOL    C16   88   0.869   0.966   3.035
    3MOL    C17   89   0.649   0.703   3.822
    3MOL    H18   90   0.546   0.814   3.691
    3MOL    C19   91   0.866   0.627   3.749
    3MOL    C20   92   1.108   0.825   3.079
    3MOL    C21   93   0.966   0.964   2.936
    3MOL    H22   94   0.788   1.015   3.020
    3MOL    C23   95   0.771   0.632   3.845
    3MOL    H24   96   0.582   0.706   3.890
    3MOL    H25   97   0.947   0.579   3.766
    3MOL    H26   98   1.190   0.779   3.093
    3MOL    C27   99   1.089   0.891   2.959
    3MOL    C28  100   0.949   1.030   2.811
    3MOL    H29  101   0.784   0.587   3.928
    3MOL    C30  102   1.187   0.890   2.855
    3MOL    C31  103   1.044   1.025   2.715
    3MOL    H32  104   0.868   1.078   2.794
    3MOL    C33  105   1.166   0.954   2.738
    3MOL    H34  106   1.269   0.843   2.869
    3MOL    H35  107   1.031   1.070   2.632
    3MOL    H36  108   1.233   0.952   2.670
    4MOL     C1  109   0.902   2.039   1.973
    4MOL     C2  110   0.804   2.040   2.075
    4MOL     C3  111   1.027   1.966   1.997
    4MOL     C4  112   0.885   2.107   1.852
    4MOL     C5  113   0.823   1.974   2.195
    4MOL     H6  114   0.722   2.087   2.061
    4MOL     C7  115   1.044   1.899   2.119
    4MOL     C8  116   1.124   1.966   1.896
    4MOL     C9  117   0.983   2.107   1.752
    4MOL    H10  118   0.804   2.155   1.839
    4MOL    C11  119   0.725   1.976   2.299
    4MOL    C12  120   0.946   1.901   2.218
    4MOL    H13  121   1.124   1.850   2.134
    4MOL    H14  122   1.205   1.919   1.909
    4MOL    C15  123   1.107   2.034   1.775
    4MOL    C16  124   0.966   2.174   1.629
    4MOL    C17  125   0.746   1.911   2.416
    4MOL    H18  126   0.643   2.022   2.286
    4MOL    C19  127   0.964   1.835   2.343
    4MOL    C20  128   1.206   2.033   1.673
    4MOL    C21  129   1.063   2.172   1.530
    4MOL    H22  130   0.885   2.223   1.614
    4MOL    C23  131   0.868   1.840   2.439
    4MOL    H24  132   0.679   1.914   2.484
    4MOL    H25  133   1.044   1.787   2.360
    4MOL    H26  134   1.287   1.987   1.688
    4MOL    C27  135   1.186   2.099   1.553
    4MOL    C28  136   1.046   2.238   1.405
    4MOL    H29  137   0.882   1.795   2.522
    4MOL    C30  138   1.284   2.098   1.449
    4MOL    C31  139   1.141   2.233   1.309
    4MOL    H32  140   0.965   2.286   1.388
    4MOL    C33  141   1.263   2.162   1.332
    4MOL    H34  142   1.366   2.051   1.463
    4MOL    H35  143   1.128   2.278   1.226
    4MOL    H36  144   1.330   2.160   1.264
    5MOL     C1  145   1.157   2.362   3.181
    5MOL     C2  146   1.256   2.361   3.079
    5MOL     C3  147   1.033   2.435   3.157
    5MOL     C4  148   1.174   2.294   3.302
    5MOL     C5  149   1.236   2.427   2.959
    5MOL     H6  150   1.337   2.314   3.093
    5MOL     C7  151   1.016   2.502   3.035
    5MOL     C8  152   0.935   2.435   3.258
    5MOL     C9  153   1.077   2.294   3.402
    5MOL    H10  154   1.256   2.246   3.315
    5MOL    C11  155   1.334   2.425   2.855
    5MOL    C12  156   1.113   2.499   2.936
    5MOL    H13  157   0.936   2.551   3.020
    5MOL    H14  158   0.854   2.482   3.245
    5MOL    C15  159   0.952   2.367   3.379
    5MOL    C16  160   1.094   2.226   3.525
    5MOL    C17  161   1.313   2.490   2.738
    5MOL    H18  162   1.416   2.378   2.869
    5MOL    C19  163   1.096   2.565   2.811
    5MOL    C20  164   0.854   2.368   3.481
    5MOL    C21  165   0.996   2.229   3.624
    5MOL    H22  166   1.174   2.178   3.540
    5MOL    C23  167   1.192   2.561   2.715
    5MOL    H24  168   1.380   2.487   2.670
    5MOL    H25  169   1.016   2.614   2.794
    5MOL    H26  170   0.772   2.414   3.467
    5MOL    C27  171   0.873   2.302   3.601
    5MOL    C28  172   1.014   2.163   3.749
    5MOL    H29  173   1.178   2.606   2.632
    5MOL    C30  174   0.775   2.303   3.705
    5MOL    C31  175   0.918   2.167   3.845
    5MOL    H32  176   1.094   2.115   3.766
    5MOL    C33  177   0.796   2.239   3.822
    5MOL    H34  178   0.694   2.350   3.691
    5MOL    H35  179   0.932   2.123   3.928
    5MOL    H36  180   0.729   2.241   3.890
    6MOL     C1  181   0.829   1.271   1.973
    6MOL     C2  182   0.730   1.272   2.075
    6MOL     C3  183   0.953   1.199   1.997
    6MOL     C4  184   0.811   1.339   1.852
    6MOL     C5  185   0.750   1.206   2.195
    6MOL     H6  186   0.649   1.319   2.061
    6MOL     C7  187   0.970   1.131   2.119
    6MOL     C8  188   1.051   1.198   1.896
    6MOL     C9  189   0.909   1.339   1.752
    6MOL    H10  190   0.730   1.387   1.839
    6MOL    C11  191   0.651   1.208   2.299
    6MOL    C12  192   0.873   1.134   2.218
    6MOL    H13  193   1.050   1.082   2.134
    6MOL    H14  194   1.132   1.151   1.909
    6MOL    C15  195   1.033   1.266   1.775
    6MOL    C16  196   0.892   1.407   1.629
    6MOL    C17  197   0.672   1.143   2.416
    6MOL    H18  198   0.570   1.255   2.286
    6MOL    C19  199   0.890   1.068   2.343
    6MOL    C20  200   1.132   1.266   1.673
    6MOL    C21  201   0.989   1.404   1.530
    6MOL    H22  202   0.812   1.455   1.614
    6MOL    C23  203   0.794   1.072   2.439
    6MOL    H24  204   0.606   1.146   2.484
    6MOL    H25  205   0.970   1.019   2.360
    6MOL    H26  206   1.213   1.219   1.688
    6MOL    C27  207   1.112   1.331   1.553
    6MOL    C28  208   0.972   1.470   1.405
    6MOL    H29  209   0.808   1.027   2.522
    6MOL    C30  210   1.211   1.330   1.449
    6MOL    C31  211   1.068   1.466   1.309
    6MOL    H32  212   0.892   1.518   1.388
    6MOL    C33  213   1.190   1.394   1.332
    6MOL    H34  214   1.292   1.283   1.463
    6MOL    H35  215   1.054   1.510   1.226
    6MOL    H36  216   1.256   1.392   1.264
    7MOL     C1  217   1.084   1.594   3.181
    7MOL     C2  218   1.182   1.593   3.079
    7MOL     C3  219   0.959   1.667   3.157
    7MOL     C4  220   1.101   1.526   3.302
    7MOL     C5  221   1.162   1.659   2.959
    7MOL     H6  222   1.263   1.546   3.093
    7MOL     C7  223   0.942   1.734   3.035
    7MOL     C8  224   0.862   1.667   3.258
    7MOL     C9  225   1.003   1.526   3.402
    7MOL    H10  226   1.182   1.478   3.315
    7MOL    C11  227   1.261   1.657   2.855
    7MOL    C12  228   1.039   1.732   2.936
    7MOL    H13  229   0.862   1.783   3.020
    7MOL    H14  230   0.780   1.714   3.245
    7MOL    C15  231   0.879   1.599   3.379
    7MOL    C16  232   1.020   1.459   3.525
    7MOL    C17  233   1.240   1.722   2.738
    7MOL    H18  234   1.342   1.611   2.869
    7MOL    C19  235   1.022   1.798   2.811
    7MOL    C20  236   0.780   1.600   3.481
    7MOL    C21  237   0.923   1.461   3.624
    7MOL    H22  238   1.100   1.410   3.540
    7MOL    C23  239   1.118   1.793   2.715
    7MOL    H24  240   1.306   1.720   2.670
    7MOL    H25  241   0.942   1.846   2.794
    7MOL    H26  242   0.699   1.646   3.467
    7MOL    C27  243   0.800   1.534   3.601
    7MOL    C28  244   0.940   1.395   3.749
    7MOL    H29  245   1.104   1.838   2.632
    7MOL    C30  246   0.701   1.535   3.705
    7MOL    C31  247   0.844   1.400   3.845
    7MOL    H32  248   1.020   1.347   3.766
    7MOL    C33  249   0.722   1.471   3.822
    7MOL    H34  250   0.620   1.582   3.691
    7MOL    H35  251   0.858   1.355   3.928
    7MOL    H36  252   0.656   1.473   3.890
    8MOL     C1  253   0.705   0.176   0.568
    8MOL     C2  254   0.606   0.176   0.670
    8MOL     C3  255   0.829   0.103   0.591
    8MOL     C4  256   0.688   0.244   0.446
    8MOL     C5  257   0.626   0.110   0.790
    8MOL     H6  258   0.525   0.223   0.655
    8MOL     C7  259   0.846   0.035   0.713
    8MOL     C8  260   0.927   0.102   0.491
    8MOL     C9  261   0.785   0.243   0.346
    8MOL    H10  262   0.606   0.291   0.433
    8MOL    C11  263   0.527   0.112   0.893
    8MOL    C12  264   0.749   0.038   0.812
    8MOL    H13  265   0.926  -0.013   0.729
    8MOL    H14  266   1.008   0.055   0.504
    8MOL    C15  267   0.910   0.171   0.369
    8MOL    C16  268   0.768   0.311   0.224
    8MOL    C17  269   0.549   0.048   1.011
    8MOL    H18  270   0.446   0.159   0.880
    8MOL    C19  271   0.766  -0.028   0.938
    8MOL    C20  272   1.008   0.170   0.267
    8MOL    C21  273   0.866   0.308   0.125
    8MOL    H22  274   0.688   0.360   0.209
    8MOL    C23  275   0.670  -0.024   1.034
    8MOL    H24  276   0.482   0.050   1.078
    8MOL    H25  277   0.846  -0.076   0.954
    8MOL    H26  278   1.090   0.123   0.282
    8MOL    C27  279   0.989   0.236   0.147
    8MOL    C28  280   0.848   0.374  -0.001
    8MOL    H29  281   0.684  -0.068   1.116
    8MOL    C30  282   1.087   0.234   0.044
    8MOL    C31  283   0.944   0.370  -0.097
    8MOL    H32  284   0.768   0.422  -0.017
    8MOL    C33  285   1.066   0.299  -0.074
    8MOL    H34  286   1.168   0.187   0.057
    8MOL    H35  287   0.930   0.415  -0.179
    8MOL    H36  288   1.133   0.296  -0.141
    9MOL     C1  289   1.057   1.706   0.369
    9MOL     C2  290   1.155   1.706   0.267
    9MOL     C3  291   0.933   1.779   0.346
    9MOL     C4  292   1.074   1.638   0.491
    9MOL     C5  293   1.136   1.772   0.147
    9MOL     H6  294   1.237   1.659   0.282
    9MOL     C7  295   0.915   1.847   0.224
    9MOL     C8  296   0.835   1.780   0.446
    9MOL     C9  297   0.976   1.639   0.591
    9MOL    H10  298   1.155   1.591   0.504
    9MOL    C11  299   1.234   1.770   0.044
    9MOL    C12  300   1.013   1.844   0.125
    9MOL    H13  301   0.835   1.896   0.209
    9MOL    H14  302   0.754   1.827   0.433
    9MOL    C15  303   0.852   1.712   0.568
    9MOL    C16  304   0.993   1.571   0.713
    9MOL    C17  305   1.213   1.834  -0.074
    9MOL    H18  306   1.316   1.723   0.057
    9MOL    C19  307   0.996   1.910  -0.001
    9MOL    C20  308   0.754   1.712   0.670
    9MOL    C21  309   0.896   1.574   0.812
    9MOL    H22  310   1.074   1.522   0.729
    9MOL    C23  311   1.091   1.906  -0.097
    9MOL    H24  312   1.280   1.832  -0.141
    9MOL    H25  313   0.915   1.958  -0.017
    9MOL    H26  314   0.672   1.759   0.655
    9MOL    C27  315   0.773   1.646   0.790
    9MOL    C28  316   0.913   1.508   0.938
    9MOL    H29  317   1.077   1.950  -0.179
    9MOL    C30  318   0.675   1.648   0.893
    9MOL    C31  319   0.818   1.512   1.034
    9MOL    H32  320   0.994   1.460   0.954
    9MOL    C33  321   0.696   1.584   1.011
    9MOL    H34  322   0.593   1.695   0.880
    9MOL    H35  323   0.831   1.468   1.116
    9MOL    H36  324   0.629   1.586   1.078
   10MOL     C1  325   1.304   2.691   3.361
   10MOL     C2  326   1.204   2.634   3.444
   10MOL     C3  327   1.427   2.740   3.421
   10MOL     C4  328   1.286   2.701   3.222
   10MOL     C5  329   1.222   2.624   3.581
   10MOL     H6  330   1.124   2.602   3.405
   10MOL     C7  331   1.442   2.728   3.560
   10MOL     C8  332   1.525   2.795   3.338
   10MOL     C9  333   1.384   2.757   3.139
   10MOL    H10  334   1.204   2.669   3.185
   10MOL    C11  335   1.123   2.565   3.668
   10MOL    C12  336   1.345   2.671   3.641
   10MOL    H13  337   1.523   2.759   3.600
   10MOL    H14  338   1.606   2.827   3.375
   10MOL    C15  339   1.507   2.806   3.199
   10MOL    C16  340   1.368   2.769   3.000
   10MOL    C17  341   1.143   2.555   3.801
   10MOL    H18  342   1.042   2.533   3.630
   10MOL    C19  343   1.361   2.659   3.783
   10MOL    C20  344   1.606   2.863   3.116
   10MOL    C21  345   1.466   2.825   2.919
   10MOL    H22  346   1.288   2.737   2.960
   10MOL    C23  347   1.263   2.604   3.860
   10MOL    H24  348   1.076   2.516   3.856
   10MOL    H25  349   1.441   2.689   3.825
   10MOL    H26  350   1.687   2.895   3.155
   10MOL    C27  351   1.588   2.873   2.979
   10MOL    C28  352   1.449   2.838   2.776
   10MOL    H29  353   1.275   2.597   3.954
   10MOL    C30  354   1.688   2.931   2.892
   10MOL    C31  355   1.547   2.893   2.700
   10MOL    H32  356   1.369   2.807   2.735
   10MOL    C33  357   1.668   2.941   2.759
   10MOL    H34  358   1.769   2.964   2.930
   10MOL    H35  359   1.535   2.899   2.606
   10MOL    H36  360   1.735   2.980   2.704
   11MOL     C1  361   1.056   0.500   0.549
   11MOL     C2  362   0.957   0.443   0.632
   11MOL     C3  363   1.179   0.549   0.610
   11MOL     C4  364   1.038   0.510   0.411
   11MOL     C5  365   0.975   0.433   0.770
   11MOL     H6  366   0.876   0.411   0.594
   11MOL     C7  367   1.195   0.537   0.749
   11MOL     C8  368   1.277   0.604   0.527
   11MOL     C9  369   1.136   0.566   0.327
   11MOL    H10  370   0.957   0.478   0.373
   11MOL    C11  371   0.875   0.374   0.856
   11MOL    C12  372   1.097   0.480   0.830
   11MOL    H13  373   1.275   0.568   0.789
   11MOL    H14  374   1.359   0.636   0.564
   11MOL    C15  375   1.259   0.615   0.388
   11MOL    C16  376   1.121   0.578   0.188
   11MOL    C17  377   0.895   0.364   0.990
   11MOL    H18  378   0.794   0.342   0.819
   11MOL    C19  379   1.114   0.468   0.972
   11MOL    C20  380   1.359   0.672   0.305
   11MOL    C21  381   1.218   0.634   0.107
   11MOL    H22  382   1.041   0.546   0.148
   11MOL    C23  383   1.016   0.412   1.048
   11MOL    H24  384   0.828   0.325   1.045
   11MOL    H25  385   1.194   0.498   1.013
   11MOL    H26  386   1.439   0.704   0.344
   11MOL    C27  387   1.341   0.682   0.167
   11MOL    C28  388   1.202   0.647  -0.035
   11MOL    H29  389   1.028   0.406   1.142
   11MOL    C30  390   1.440   0.740   0.081
   11MOL    C31  391   1.300   0.702  -0.111
   11MOL    H32  392   1.122   0.616  -0.076
   11MOL    C33  393   1.421   0.750  -0.053
   11MOL    H34  394   1.521   0.773   0.118
   11MOL    H35  395   1.288   0.708  -0.205
   11MOL    H36  396   1.487   0.789  -0.108
   12MOL     C1  397   1.360   1.270   3.199
   12MOL     C2  398   1.459   1.327   3.116
   12MOL     C3  399   1.237   1.221   3.139
   12MOL     C4  400   1.378   1.260   3.338
   12MOL     C5  401   1.441   1.337   2.979
   12MOL     H6  402   1.539   1.359   3.155
   12MOL     C7  403   1.221   1.233   3.000
   12MOL     C8  404   1.139   1.165   3.222
   12MOL     C9  405   1.280   1.204   3.421
   12MOL    H10  406   1.459   1.291   3.375
   12MOL    C11  407   1.541   1.396   2.892
   12MOL    C12  408   1.319   1.290   2.919
   12MOL    H13  409   1.141   1.201   2.960
   12MOL    H14  410   1.057   1.134   3.185
   12MOL    C15  411   1.156   1.155   3.361
   12MOL    C16  412   1.295   1.192   3.560
   12MOL    C17  413   1.521   1.405   2.759
   12MOL    H18  414   1.622   1.428   2.930
   12MOL    C19  415   1.302   1.302   2.776
   12MOL    C20  416   1.057   1.098   3.444
   12MOL    C21  417   1.198   1.135   3.641
   12MOL    H22  418   1.375   1.224   3.600
   12MOL    C23  419   1.400   1.357   2.700
   12MOL    H24  420   1.588   1.445   2.704
   12MOL    H25  421   1.222   1.271   2.735
   12MOL    H26  422   0.977   1.066   3.405
   12MOL    C27  423   1.075   1.088   3.581
   12MOL    C28  424   1.214   1.123   3.783
   12MOL    H29  425   1.388   1.364   2.606
   12MOL    C30  426   0.976   1.029   3.668
   12MOL    C31  427   1.116   1.068   3.860
   12MOL    H32  428   1.294   1.154   3.825
   12MOL    C33  429   0.995   1.020   3.801
   12MOL    H34  430   0.895   0.997   3.630
   12MOL    H35  431   1.128   1.061   3.954
   12MOL    H36  432   0.928   0.980   3.856
   13MOL     C1  433   1.310   0.942   1.794
   13MOL     C2  434   1.409   0.999   1.710
   13MOL     C3  435   1.187   0.893   1.733
   13MOL     C4  436   1.328   0.932   1.932
   13MOL     C5  437   1.391   1.009   1.573
   13MOL     H6  438   1.489   1.031   1.749
   13MOL     C7  439   1.171   0.905   1.594
   13MOL     C8  440   1.088   0.838   1.816
   13MOL     C9  441   1.229   0.876   2.015
   13MOL    H10  442   1.409   0.964   1.970
   13MOL    C11  443   1.491   1.068   1.487
   13MOL    C12  444   1.268   0.962   1.513
   13MOL    H13  445   1.091   0.874   1.554
   13MOL    H14  446   1.007   0.806   1.779
   13MOL    C15  447   1.106   0.827   1.955
   13MOL    C16  448   1.245   0.864   2.155
   13MOL    C17  449   1.471   1.078   1.353
   13MOL    H18  450   1.571   1.100   1.524
   13MOL    C19  451   1.252   0.974   1.371
   13MOL    C20  452   1.007   0.770   2.038
   13MOL    C21  453   1.147   0.808   2.236
   13MOL    H22  454   1.325   0.896   2.195
   13MOL    C23  455   1.350   1.030   1.295
   13MOL    H24  456   1.538   1.117   1.298
   13MOL    H25  457   1.172   0.944   1.330
   13MOL    H26  458   0.927   0.738   1.999
   13MOL    C27  459   1.025   0.760   2.176
   13MOL    C28  460   1.164   0.795   2.378
   13MOL    H29  461   1.338   1.036   1.200
   13MOL    C30  462   0.925   0.702   2.262
   13MOL    C31  463   1.066   0.740   2.454
   13MOL    H32  464   1.244   0.826   2.419
   13MOL    C33  465   0.945   0.692   2.395
   13MOL    H34  466   0.844   0.669   2.224
   13MOL    H35  467   1.078   0.734   2.548
   13MOL    H36  468   0.878   0.653   2.450
   14MOL     C1  469   1.254   2.363   1.955
   14MOL     C2  470   1.154   2.306   2.038
   14MOL     C3  471   1.377   2.412   2.015
   14MOL     C4  472   1.236   2.373   1.816
   14MOL     C5  473   1.172   2.296   2.176
   14MOL     H6  474   1.074   2.274   1.999
   14MOL     C7  475   1.392   2.400   2.155
   14MOL     C8  476   1.475   2.468   1.932
   14MOL     C9  477   1.334   2.429   1.733
   14MOL    H10  478   1.154   2.342   1.779
   14MOL    C11  479   1.073   2.237   2.262
   14MOL    C12  480   1.295   2.344   2.236
   14MOL    H13  481   1.472   2.432   2.195
   14MOL    H14  482   1.556   2.499   1.970
   14MOL    C15  483   1.457   2.478   1.794
   14MOL    C16  484   1.318   2.441   1.594
   14MOL    C17  485   1.092   2.228   2.395
   14MOL    H18  486   0.992   2.205   2.224
   14MOL    C19  487   1.311   2.331   2.378
   14MOL    C20  488   1.556   2.535   1.710
   14MOL    C21  489   1.416   2.498   1.513
   14MOL    H22  490   1.238   2.409   1.554
   14MOL    C23  491   1.213   2.276   2.454
   14MOL    H24  492   1.026   2.188   2.450
   14MOL    H25  493   1.391   2.362   2.419
   14MOL    H26  494   1.637   2.567   1.749
   14MOL    C27  495   1.538   2.545   1.573
   14MOL    C28  496   1.399   2.510   1.371
   14MOL    H29  497   1.225   2.269   2.548
   14MOL    C30  498   1.638   2.604   1.487
   14MOL    C31  499   1.497   2.565   1.295
   14MOL    H32  500   1.319   2.479   1.330
   14MOL    C33  501   1.618   2.613   1.353
   14MOL    H34  502   1.719   2.636   1.524
   14MOL    H35  503   1.485   2.572   1.200
   14MOL    H36  504   1.685   2.653   1.298
   15MOL     C1  505   1.383   1.710   1.794
   15MOL     C2  506   1.482   1.767   1.710
   15MOL     C3  507   1.260   1.661   1.733
   15MOL     C4  508   1.401   1.700   1.932
   15MOL     C5  509   1.465   1.777   1.573
   15MOL     H6  510   1.563   1.799   1.749
   15MOL     C7  511   1.244   1.673   1.594
   15MOL     C8  512   1.162   1.606   1.816
   15MOL     C9  513   1.303   1.644   2.015
   15MOL    H10  514   1.482   1.732   1.970
   15MOL    C11  515   1.564   1.836   1.487
   15MOL    C12  516   1.342   1.730   1.513
   15MOL    H13  517   1.164   1.641   1.554
   15MOL    H14  518   1.081   1.574   1.779
   15MOL    C15  519   1.180   1.595   1.955
   15MOL    C16  520   1.319   1.632   2.155
   15MOL    C17  521   1.544   1.846   1.353
   15MOL    H18  522   1.645   1.868   1.524
   15MOL    C19  523   1.326   1.742   1.371
   15MOL    C20  524   1.081   1.538   2.038
   15MOL    C21  525   1.221   1.576   2.236
   15MOL    H22  526   1.399   1.664   2.195
   15MOL    C23  527   1.424   1.797   1.295
   15MOL    H24  528   1.611   1.885   1.298
   15MOL    H25  529   1.246   1.712   1.330
   15MOL    H26  530   1.000   1.506   1.999
   15MOL    C27  531   1.099   1.528   2.176
   15MOL    C28  532   1.237   1.563   2.378
   15MOL    H29  533   1.411   1.804   1.200
   15MOL    C30  534   0.999   1.469   2.262
   15MOL    C31  535   1.140   1.508   2.454
   15MOL    H32  536   1.317   1.594   2.419
   15MOL    C33  537   1.019   1.460   2.395
   15MOL    H34  538   0.918   1.437   2.224
   15MOL    H35  539   1.152   1.502   2.548
   15MOL    H36  540   0.952   1.421   2.450
   16MOL     C1  541   1.333   1.382   0.388
   16MOL     C2  542   1.432   1.440   0.305
   16MOL     C3  543   1.210   1.334   0.327
   16MOL     C4  544   1.351   1.372   0.527
   16MOL     C5  545   1.414   1.450   0.167
   16MOL     H6  546   1.513   1.472   0.344
   16MOL     C7  547   1.194   1.346   0.188
   16MOL     C8  548   1.112   1.278   0.411
   16MOL     C9  549   1.253   1.316   0.610
   16MOL    H10  550   1.432   1.404   0.564
   16MOL    C11  551   1.514   1.508   0.081
   16MOL    C12  552   1.292   1.402   0.107
   16MOL    H13  553   1.114   1.314   0.148
   16MOL    H14  554   1.031   1.246   0.373
   16MOL    C15  555   1.130   1.268   0.549
   16MOL    C16  556   1.269   1.304   0.749
   16MOL    C17  557   1.494   1.518  -0.053
   16MOL    H18  558   1.595   1.541   0.118
   16MOL    C19  559   1.276   1.415  -0.035
   16MOL    C20  560   1.031   1.210   0.632
   16MOL    C21  561   1.171   1.248   0.830
   16MOL    H22  562   1.349   1.336   0.789
   16MOL    C23  563   1.373   1.470  -0.111
   16MOL    H24  564   1.561   1.557  -0.108
   16MOL    H25  565   1.196   1.384  -0.076
   16MOL    H26  566   0.950   1.178   0.594
   16MOL    C27  567   1.048   1.200   0.770
   16MOL    C28  568   1.187   1.235   0.972
   16MOL    H29  569   1.361   1.476  -0.205
   16MOL    C30  570   0.949   1.142   0.856
   16MOL    C31  571   1.089   1.180   1.048
   16MOL    H32  572   1.267   1.266   1.013
   16MOL    C33  573   0.969   1.132   0.990
   16MOL    H34  574   0.868   1.109   0.819
   16MOL    H35  575   1.102   1.174   1.142
   16MOL    H36  576   0.902   1.093   1.045
   17MOL     C1  577   1.433   2.038   3.199
   17MOL     C2  578   1.533   2.095   3.116
   17MOL     C3  579   1.310   1.989   3.139
   17MOL     C4  580   1.451   2.028   3.338
   17MOL     C5  581   1.515   2.105   2.979
   17MOL     H6  582   1.613   2.127   3.155
   17MOL     C7  583   1.295   2.001   3.000
   17MOL     C8  584   1.212   1.933   3.222
   17MOL     C9  585   1.353   1.972   3.421
   17MOL    H10  586   1.533   2.059   3.375
   17MOL    C11  587   1.614   2.164   2.892
   17MOL    C12  588   1.392   2.057   2.919
   17MOL    H13  589   1.214   1.969   2.960
   17MOL    H14  590   1.131   1.901   3.185
   17MOL    C15  591   1.230   1.923   3.361
   17MOL    C16  592   1.369   1.960   3.560
   17MOL    C17  593   1.594   2.173   2.759
   17MOL    H18  594   1.695   2.196   2.930
   17MOL    C19  595   1.376   2.070   2.776
   17MOL    C20  596   1.131   1.866   3.444
   17MOL    C21  597   1.271   1.903   3.641
   17MOL    H22  598   1.449   1.992   3.600
   17MOL    C23  599   1.474   2.125   2.700
   17MOL    H24  600   1.661   2.212   2.704
   17MOL    H25  601   1.296   2.039   2.735
   17MOL    H26  602   1.050   1.834   3.405
   17MOL    C27  603   1.149   1.856   3.581
   17MOL    C28  604   1.288   1.891   3.783
   17MOL    H29  605   1.462   2.132   2.606
   17MOL    C30  606   1.049   1.797   3.668
   17MOL    C31  607   1.190   1.836   3.860
   17MOL    H32  608   1.368   1.921   3.825
   17MOL    C33  609   1.069   1.787   3.801
   17MOL    H34  610   0.968   1.765   3.630
   17MOL    H35  611   1.202   1.829   3.954
   17MOL    H36  612   1.002   1.748   3.856
   18MOL     C1  613   1.203   2.036   0.549
   18MOL     C2  614   1.104   1.978   0.632
   18MOL     C3  615   1.327   2.084   0.610
   18MOL     C4  616   1.185   2.046   0.411
   18MOL     C5  617   1.122   1.968   0.770
   18MOL     H6  618   1.024   1.946   0.594
   18MOL     C7  619   1.342   2.072   0.749
   18MOL     C8  620   1.425   2.140   0.527
   18MOL     C9  621   1.284   2.101   0.327
   18MOL    H10  622   1.104   2.014   0.373
   18MOL    C11  623   1.022   1.910   0.856
   18MOL    C12  624   1.245   2.016   0.830
   18MOL    H13  625   1.422   2.104   0.789
   18MOL    H14  626   1.506   2.172   0.564
   18MOL    C15  627   1.407   2.150   0.388
   18MOL    C16  628   1.268   2.113   0.188
   18MOL    C17  629   1.042   1.900   0.990
   18MOL    H18  630   0.942   1.877   0.819
   18MOL    C19  631   1.261   2.003   0.972
   18MOL    C20  632   1.506   2.207   0.305
   18MOL    C21  633   1.366   2.170   0.107
   18MOL    H22  634   1.188   2.082   0.148
   18MOL    C23  635   1.163   1.948   1.048
   18MOL    H24  636   0.975   1.861   1.045
   18MOL    H25  637   1.341   2.034   1.013
   18MOL    H26  638   1.586   2.239   0.344
   18MOL    C27  639   1.488   2.217   0.167
   18MOL    C28  640   1.349   2.182  -0.035
   18MOL    H29  641   1.175   1.942   1.142
   18MOL    C30  642   1.588   2.276   0.081
   18MOL    C31  643   1.447   2.238  -0.111
   18MOL    H32  644   1.269   2.152  -0.076
   18MOL    C33  645   1.568   2.286  -0.053
   18MOL    H34  646   1.669   2.308   0.118
   18MOL    H35  647   1.435   2.244  -0.205
   18MOL    H36  648   1.635   2.325  -0.108
   19MOL     C1  649   0.429   0.500   0.549
   19MOL     C2  650   0.329   0.443   0.632
   19MOL     C3  651   0.552   0.549   0.610
   19MOL     C4  652   0.411   0.510   0.411
   19MOL     C5  653   0.347   0.433   0.770
   19MOL     H6  654   0.249   0.411   0.594
   19MOL     C7  655   0.567   0.537   0.749
   19MOL     C8  656   0.650   0.604   0.527
   19MOL     C9  657   0.509   0.566   0.327
   19MOL    H10  658   0.329   0.478   0.373
   19MOL    C11  659   0.248   0.374   0.856
   19MOL    C12  660   0.470   0.480   0.830
   19MOL    H13  661   0.648   0.568   0.789
   19MOL    H14  662   0.731   0.636   0.564
   19MOL    C15  663   0.632   0.615   0.388
   19MOL    C16  664   0.493   0.578   0.188
   19MOL    C17  665   0.268   0.364   0.990
   19MOL    H18  666   0.167   0.342   0.819
   19MOL    C19  667   0.486   0.468   0.972
   19MOL    C20  668   0.731   0.672   0.305
   19MOL    C21  669   0.591   0.634   0.107
   19MOL    H22  670   0.413   0.546   0.148
   19MOL    C23  671   0.388   0.412   1.048
   19MOL    H24  672   0.201   0.325   1.045
   19MOL    H25  673   0.566   0.498   1.013
   19MOL    H26  674   0.812   0.704   0.344
   19MOL    C27  675   0.713   0.682   0.167
   19MOL    C28  676   0.574   0.647  -0.035
   19MOL    H29  677   0.400   0.406   1.142
   19MOL    C30  678   0.813   0.740   0.081
   19MOL    C31  679   0.672   0.702  -0.111
   19MOL    H32  680   0.494   0.616  -0.076
   19MOL    C33  681   0.793   0.750  -0.053
   19MOL    H34  682   0.894   0.773   0.118
   19MOL    H35  683   0.660   0.708  -0.205
   19MOL    H36  684   0.860   0.789  -0.108
   20MOL     C1  685   0.502   1.268   0.549
   20MOL     C2  686   0.403   1.210   0.632
   20MOL     C3  687   0.625   1.316   0.610
   20MOL     C4  688   0.484   1.278   0.411
   20MOL     C5  689   0.421   1.200   0.770
   20MOL     H6  690   0.323   1.178   0.594
   20MOL     C7  691   0.641   1.304   0.749
   20MOL     C8  692   0.723   1.372   0.527
   20MOL     C9  693   0.582   1.334   0.327
   20MOL    H10  694   0.403   1.246   0.373
   20MOL    C11  695   0.321   1.142   0.856
   20MOL    C12  696   0.543   1.248   0.830
   20MOL    H13  697   0.721   1.336   0.789
   20MOL    H14  698   0.805   1.404   0.564
   20MOL    C15  699   0.706   1.382   0.388
   20MOL    C16  700   0.567   1.346   0.188
   20MOL    C17  701   0.341   1.132   0.990
   20MOL    H18  702   0.240   1.109   0.819
   20MOL    C19  703   0.560   1.235   0.972
   20MOL    C20  704   0.805   1.440   0.305
   20MOL    C21  705   0.664   1.402   0.107
   20MOL    H22  706   0.487   1.314   0.148
   20MOL    C23  707   0.462   1.180   1.048
   20MOL    H24  708   0.274   1.093   1.045
   20MOL    H25  709   0.640   1.266   1.013
   20MOL    H26  710   0.885   1.472   0.344
   20MOL    C27  711   0.787   1.450   0.167
   20MOL    C28  712   0.648   1.415  -0.035
   20MOL    H29  713   0.474   1.174   1.142
   20MOL    C30  714   0.886   1.508   0.081
   20MOL    C31  715   0.746   1.470  -0.111
   20MOL    H32  716   0.568   1.384  -0.076
   20MOL    C33  717   0.867   1.518  -0.053
   20MOL    H34  718   0.967   1.541   0.118
   20MOL    H35  719   0.734   1.476  -0.205
   20MOL    H36  720   0.934   1.557  -0.108
   21MOL     C1  721   0.576   2.036   0.549
   21MOL     C2  722   0.477   1.978   0.632
   21MOL     C3  723   0.699   2.084   0.610
   21MOL     C4  724   0.558   2.046   0.411
   21MOL     C5  725   0.495   1.968   0.770
   21MOL     H6  726   0.396   1.946   0.594
   21MOL     C7  727   0.715   2.072   0.749
   21MOL     C8  728   0.797   2.140   0.527
   21MOL     C9  729   0.656   2.101   0.327
   21MOL    H10  730   0.477   2.014   0.373
   21MOL    C11  731   0.395   1.910   0.856
   21MOL    C12  732   0.617   2.016   0.830
   21MOL    H13  733   0.795   2.104   0.789
   21MOL    H14  734   0.878   2.172   0.564
   21MOL    C15  735   0.779   2.150   0.388
   21MOL    C16  736   0.640   2.113   0.188
   21MOL    C17  737   0.415   1.900   0.990
   21MOL    H18  738   0.314   1.877   0.819
   21MOL    C19  739   0.633   2.003   0.972
   21MOL    C20  740   0.878   2.207   0.305
   21MOL    C21  741   0.738   2.170   0.107
   21MOL    H22  742   0.560   2.082   0.148
   21MOL    C23  743   0.536   1.948   1.048
   21MOL    H24  744   0.348   1.861   1.045
   21MOL    H25  745   0.713   2.034   1.013
   21MOL    H26  746   0.959   2.239   0.344
   21MOL    C27  747   0.860   2.217   0.167
   21MOL    C28  748   0.722   2.182  -0.035
   21MOL    H29  749   0.548   1.942   1.142
   21MOL    C30  750   0.960   2.276   0.081
   21MOL    C31  751   0.820   2.238  -0.111
   21MOL    H32  752   0.642   2.152  -0.076
   21MOL    C33  753   0.940   2.286  -0.053
   21MOL    H34  754   1.041   2.308   0.118
   21MOL    H35  755   0.807   2.244  -0.205
   21MOL    H36  756   1.007   2.325  -0.108
   22MOL     C1  757   0.479   0.827   1.955
   22MOL     C2  758   0.380   0.770   2.038
   22MOL     C3  759   0.602   0.876   2.015
   22MOL     C4  760   0.461   0.838   1.816
   22MOL     C5  761   0.397   0.760   2.176
   22MOL     H6  762   0.299   0.738   1.999
   22MOL     C7  763   0.618   0.864   2.155
   22MOL     C8  764   0.700   0.932   1.932
   22MOL     C9  765   0.559   0.893   1.733
   22MOL    H10  766   0.380   0.806   1.779
   22MOL    C11  767   0.298   0.702   2.262
   22MOL    C12  768   0.520   0.808   2.236
   22MOL    H13  769   0.698   0.896   2.195
   22MOL    H14  770   0.781   0.964   1.970
   22MOL    C15  771   0.682   0.942   1.794
   22MOL    C16  772   0.543   0.905   1.594
   22MOL    C17  773   0.318   0.692   2.395
   22MOL    H18  774   0.217   0.669   2.224
   22MOL    C19  775   0.536   0.795   2.378
   22MOL    C20  776   0.781   0.999   1.710
   22MOL    C21  777   0.641   0.962   1.513
   22MOL    H22  778   0.463   0.874   1.554
   22MOL    C23  779   0.438   0.740   2.454
   22MOL    H24  780   0.251   0.653   2.450
   22MOL    H25  781   0.616   0.826   2.419
   22MOL    H26  782   0.862   1.031   1.749
   22MOL    C27  783   0.763   1.009   1.573
   22MOL    C28  784   0.625   0.974   1.371
   22MOL    H29  785   0.451   0.734   2.548
   22MOL    C30  786   0.863   1.068   1.487
   22MOL    C31  787   0.722   1.030   1.295
   22MOL    H32  788   0.545   0.944   1.330
   22MOL    C33  789   0.843   1.078   1.353
   22MOL    H34  790   0.944   1.100   1.524
   22MOL    H35  791   0.710   1.036   1.200
   22MOL    H36  792   0.910   1.117   1.298
   23MOL     C1  793   0.529   1.155   3.361
   23MOL     C2  794   0.430   1.098   3.444
   23MOL     C3  795   0.652   1.204   3.421
   23MOL     C4  796   0.511   1.165   3.222
   23MOL     C5  797   0.448   1.088   3.581
   23MOL     H6  798   0.349   1.066   3.405
   23MOL     C7  799   0.668   1.192   3.560
   23MOL     C8  800   0.750   1.260   3.338
   23MOL     C9  801   0.609   1.221   3.139
   23MOL    H10  802   0.430   1.134   3.185
   23MOL    C11  803   0.348   1.029   3.668
   23MOL    C12  804   0.570   1.135   3.641
   23MOL    H13  805   0.748   1.224   3.600
   23MOL    H14  806   0.831   1.291   3.375
   23MOL    C15  807   0.732   1.270   3.199
   23MOL    C16  808   0.593   1.233   3.000
   23MOL    C17  809   0.368   1.020   3.801
   23MOL    H18  810   0.267   0.997   3.630
   23MOL    C19  811   0.586   1.123   3.783
   23MOL    C20  812   0.831   1.327   3.116
   23MOL    C21  813   0.691   1.290   2.919
   23MOL    H22  814   0.513   1.201   2.960
   23MOL    C23  815   0.489   1.068   3.860
   23MOL    H24  816   0.301   0.980   3.856
   23MOL    H25  817   0.666   1.154   3.825
   23MOL    H26  818   0.912   1.359   3.155
   23MOL    C27  819   0.814   1.337   2.979
   23MOL    C28  820   0.675   1.302   2.776
   23MOL    H29  821   0.501   1.061   3.954
   23MOL    C30  822   0.913   1.396   2.892
   23MOL    C31  823   0.773   1.357   2.700
   23MOL    H32  824   0.595   1.271   2.735
   23MOL    C33  825   0.893   1.405   2.759
   23MOL    H34  826   0.994   1.428   2.930
   23MOL    H35  827   0.760   1.364   2.606
   23MOL    H36  828   0.960   1.445   2.704
   24MOL     C1  829   1.506   1.599   3.379
   24MOL     C2  830   1.408   1.600   3.481
   24MOL     C3  831   1.631   1.526   3.402
   24MOL     C4  832   1.489   1.667   3.258
   24MOL     C5  833   1.427   1.534   3.601
   24MOL     H6  834   1.326   1.646   3.467
   24MOL     C7  835   1.648   1.459   3.525
   24MOL     C8  836   1.728   1.526   3.302
   24MOL     C9  837   1.587   1.667   3.157
   24MOL    H10  838   1.408   1.714   3.245
   24MOL    C11  839   1.329   1.535   3.705
   24MOL    C12  840   1.550   1.461   3.624
   24MOL    H13  841   1.728   1.410   3.540
   24MOL    H14  842   1.810   1.478   3.315
   24MOL    C15  843   1.711   1.594   3.181
   24MOL    C16  844   1.570   1.734   3.035
   24MOL    C17  845   1.350   1.471   3.822
   24MOL    H18  846   1.247   1.582   3.691
   24MOL    C19  847   1.568   1.395   3.749
   24MOL    C20  848   1.810   1.593   3.079
   24MOL    C21  849   1.667   1.732   2.936
   24MOL    H22  850   1.490   1.783   3.020
   24MOL    C23  851   1.472   1.400   3.845
   24MOL    H24  852   1.283   1.473   3.890
   24MOL    H25  853   1.648   1.347   3.766
   24MOL    H26  854   1.891   1.546   3.093
   24MOL    C27  855   1.790   1.659   2.959
   24MOL    C28  856   1.650   1.798   2.811
   24MOL    H29  857   1.486   1.355   3.928
   24MOL    C30  858   1.888   1.657   2.855
   24MOL    C31  859   1.746   1.793   2.715
   24MOL    H32  860   1.569   1.846   2.794
   24MOL    C33  861   1.867   1.722   2.738
   24MOL    H34  862   1.970   1.611   2.869
   24MOL    H35  863   1.732   1.838   2.632
   24MOL    H36  864   1.934   1.720   2.670
   25MOL     C1  865   0.756   1.710   1.794
   25MOL     C2  866   0.855   1.767   1.710
   25MOL     C3  867   0.633   1.661   1.733
   25MOL     C4  868   0.774   1.700   1.932
   25MOL     C5  869   0.837   1.777   1.573
   25MOL     H6  870   0.935   1.799   1.749
   25MOL     C7  871   0.617   1.673   1.594
   25MOL     C8  872   0.534   1.606   1.816
   25MOL     C9  873   0.675   1.644   2.015
   25MOL    H10  874   0.855   1.732   1.970
   25MOL    C11  875   0.937   1.836   1.487
   25MOL    C12  876   0.715   1.730   1.513
   25MOL    H13  877   0.537   1.641   1.554
   25MOL    H14  878   0.453   1.574   1.779
   25MOL    C15  879   0.552   1.595   1.955
   25MOL    C16  880   0.691   1.632   2.155
   25MOL    C17  881   0.917   1.846   1.353
   25MOL    H18  882   1.018   1.868   1.524
   25MOL    C19  883   0.698   1.742   1.371
   25MOL    C20  884   0.453   1.538   2.038
   25MOL    C21  885   0.594   1.576   2.236
   25MOL    H22  886   0.771   1.664   2.195
   25MOL    C23  887   0.796   1.797   1.295
   25MOL    H24  888   0.984   1.885   1.298
   25MOL    H25  889   0.618   1.712   1.330
   25MOL    H26  890   0.373   1.506   1.999
   25MOL    C27  891   0.471   1.528   2.176
   25MOL    C28  892   0.610   1.563   2.378
   25MOL    H29  893   0.784   1.804   1.200
   25MOL    C30  894   0.371   1.469   2.262
   25MOL    C31  895   0.512   1.508   2.454
   25MOL    H32  896   0.690   1.594   2.419
   25MOL    C33  897   0.391   1.460   2.395
   25MOL    H34  898   0.290   1.437   2.224
   25MOL    H35  899   0.524   1.502   2.548
   25MOL    H36  900   0.324   1.421   2.450
   26MOL     C1  901   1.433   0.831   3.379
   26MOL     C2  902   1.334   0.832   3.481
   26MOL     C3  903   1.557   0.758   3.402
   26MOL     C4  904   1.416   0.899   3.258
   26MOL     C5  905   1.354   0.766   3.601
   26MOL     H6  906   1.253   0.879   3.467
   26MOL     C7  907   1.574   0.691   3.525
   26MOL     C8  908   1.655   0.758   3.302
   26MOL     C9  909   1.513   0.899   3.157
   26MOL    H10  910   1.334   0.947   3.245
   26MOL    C11  911   1.255   0.768   3.705
   26MOL    C12  912   1.477   0.693   3.624
   26MOL    H13  913   1.654   0.642   3.540
   26MOL    H14  914   1.736   0.711   3.315
   26MOL    C15  915   1.638   0.826   3.181
   26MOL    C16  916   1.496   0.966   3.035
   26MOL    C17  917   1.276   0.703   3.822
   26MOL    H18  918   1.174   0.814   3.691
   26MOL    C19  919   1.494   0.627   3.749
   26MOL    C20  920   1.736   0.825   3.079
   26MOL    C21  921   1.593   0.964   2.936
   26MOL    H22  922   1.416   1.015   3.020
   26MOL    C23  923   1.398   0.632   3.845
   26MOL    H24  924   1.210   0.706   3.890
   26MOL    H25  925   1.574   0.579   3.766
   26MOL    H26  926   1.817   0.779   3.093
   26MOL    C27  927   1.716   0.891   2.959
   26MOL    C28  928   1.576   1.030   2.811
   26MOL    H29  929   1.412   0.587   3.928
   26MOL    C30  930   1.815   0.890   2.855
   26MOL    C31  931   1.672   1.025   2.715
   26MOL    H32  932   1.496   1.078   2.794
   26MOL    C33  933   1.794   0.954   2.738
   26MOL    H34  934   1.896   0.843   2.869
   26MOL    H35  935   1.658   1.070   2.632
   26MOL    H36  936   1.860   0.952   2.670
   27MOL     C1  937   1.735   2.034   1.775
   27MOL     C2  938   1.833   2.033   1.673
   27MOL     C3  939   1.610   2.107   1.752
   27MOL     C4  940   1.752   1.966   1.896
   27MOL     C5  941   1.813   2.099   1.553
   27MOL     H6  942   1.914   1.987   1.688
   27MOL     C7  943   1.593   2.174   1.629
   27MOL     C8  944   1.513   2.107   1.852
   27MOL     C9  945   1.654   1.966   1.997
   27MOL    H10  946   1.833   1.919   1.909
   27MOL    C11  947   1.912   2.098   1.449
   27MOL    C12  948   1.690   2.172   1.530
   27MOL    H13  949   1.513   2.223   1.614
   27MOL    H14  950   1.431   2.155   1.839
   27MOL    C15  951   1.530   2.039   1.973
   27MOL    C16  952   1.671   1.899   2.119
   27MOL    C17  953   1.891   2.162   1.332
   27MOL    H18  954   1.993   2.051   1.463
   27MOL    C19  955   1.673   2.238   1.405
   27MOL    C20  956   1.431   2.040   2.075
   27MOL    C21  957   1.574   1.901   2.218
   27MOL    H22  958   1.751   1.850   2.134
   27MOL    C23  959   1.769   2.233   1.309
   27MOL    H24  960   1.957   2.160   1.264
   27MOL    H25  961   1.593   2.286   1.388
   27MOL    H26  962   1.350   2.087   2.061
   27MOL    C27  963   1.451   1.974   2.195
   27MOL    C28  964   1.591   1.835   2.343
   27MOL    H29  965   1.755   2.278   1.226
   27MOL    C30  966   1.352   1.976   2.299
   27MOL    C31  967   1.495   1.840   2.439
   27MOL    H32  968   1.671   1.787   2.360
   27MOL    C33  969   1.373   1.911   2.416
   27MOL    H34  970   1.271   2.022   2.286
   27MOL    H35  971   1.509   1.795   2.522
   27MOL    H36  972   1.307   1.914   2.484
   28MOL     C1  973   1.580   2.367   3.379
   28MOL     C2  974   1.481   2.368   3.481
   28MOL     C3  975   1.704   2.294   3.402
   28MOL     C4  976   1.563   2.435   3.258
   28MOL     C5  977   1.501   2.302   3.601
   28MOL     H6  978   1.400   2.414   3.467
   28MOL     C7  979   1.721   2.226   3.525
   28MOL     C8  980   1.802   2.294   3.302
   28MOL     C9  981   1.660   2.435   3.157
   28MOL    H10  982   1.481   2.482   3.245
   28MOL    C11  983   1.403   2.303   3.705
   28MOL    C12  984   1.624   2.229   3.624
   28MOL    H13  985   1.801   2.178   3.540
   28MOL    H14  986   1.883   2.246   3.315
   28MOL    C15  987   1.785   2.362   3.181
   28MOL    C16  988   1.643   2.502   3.035
   28MOL    C17  989   1.424   2.239   3.822
   28MOL    H18  990   1.321   2.350   3.691
   28MOL    C19  991   1.641   2.163   3.749
   28MOL    C20  992   1.883   2.361   3.079
   28MOL    C21  993   1.741   2.499   2.936
   28MOL    H22  994   1.563   2.551   3.020
   28MOL    C23  995   1.545   2.167   3.845
   28MOL    H24  996   1.357   2.241   3.890
   28MOL    H25  997   1.721   2.115   3.766
   28MOL    H26  998   1.965   2.314   3.093
   28MOL    C27  999   1.864   2.427   2.959
   28MOL    C28 1000   1.723   2.565   2.811
   28MOL    H29 1001   1.559   2.123   3.928
   28MOL    C30 1002   1.962   2.425   2.855
   28MOL    C31 1003   1.819   2.561   2.715
   28MOL    H32 1004   1.643   2.614   2.794
   28MOL    C33 1005   1.941   2.490   2.738
   28MOL    H34 1006   2.043   2.378   2.869
   28MOL    H35 1007   1.805   2.606   2.632
   28MOL    H36 1008   2.008   2.487   2.670
   29MOL     C1 1009   1.456   1.271   1.973
   29MOL     C2 1010   1.358   1.272   2.075
   29MOL     C3 1011   1.580   1.199   1.997
   29MOL     C4 1012   1.439   1.339   1.852
   29MOL     C5 1013   1.377   1.206   2.195
   29MOL     H6 1014   1.276   1.319   2.061
   29MOL     C7 1015   1.598   1.131   2.119
   29MOL     C8 1016   1.678   1.198   1.896
   29MOL     C9 1017   1.537   1.339   1.752
   29MOL    H10 1018   1.358   1.387   1.839
   29MOL    C11 1019   1.279   1.208   2.299
   29MOL    C12 1020   1.500   1.134   2.218
   29MOL    H13 1021   1.678   1.082   2.134
   29MOL    H14 1022   1.759   1.151   1.909
   29MOL    C15 1023   1.661   1.266   1.775
   29MOL    C16 1024   1.520   1.407   1.629
   29MOL    C17 1025   1.300   1.143   2.416
   29MOL    H18 1026   1.197   1.255   2.286
   29MOL    C19 1027   1.517   1.068   2.343
   29MOL    C20 1028   1.759   1.266   1.673
   29MOL    C21 1029   1.617   1.404   1.530
   29MOL    H22 1030   1.439   1.455   1.614
   29MOL    C23 1031   1.422   1.072   2.439
   29MOL    H24 1032   1.233   1.146   2.484
   29MOL    H25 1033   1.598   1.019   2.360
   29MOL    H26 1034   1.841   1.219   1.688
   29MOL    C27 1035   1.740   1.331   1.553
   29MOL    C28 1036   1.600   1.470   1.405
   29MOL    H29 1037   1.436   1.027   2.522
   29MOL    C30 1038   1.838   1.330   1.449
   29MOL    C31 1039   1.695   1.466   1.309
   29MOL    H32 1040   1.519   1.518   1.388
   29MOL    C33 1041   1.817   1.394   1.332
   29MOL    H34 1042   1.920   1.283   1.463
   29MOL    H35 1043   1.682   1.510   1.226
   29MOL    H36 1044   1.884   1.392   1.264
   30MOL     C1 1045   1.406   0.944   0.568
   30MOL     C2 1046   1.307   0.944   0.670
   30MOL     C3 1047   1.530   0.871   0.591
   30MOL     C4 1048   1.389   1.012   0.446
   30MOL     C5 1049   1.327   0.878   0.790
   30MOL     H6 1050   1.226   0.991   0.655
   30MOL     C7 1051   1.547   0.803   0.713
   30MOL     C8 1052   1.628   0.870   0.491
   30MOL     C9 1053   1.486   1.011   0.346
   30MOL    H10 1054   1.308   1.059   0.433
   30MOL    C11 1055   1.229   0.880   0.893
   30MOL    C12 1056   1.450   0.806   0.812
   30MOL    H13 1057   1.628   0.754   0.729
   30MOL    H14 1058   1.709   0.823   0.504
   30MOL    C15 1059   1.611   0.938   0.369
   30MOL    C16 1060   1.469   1.079   0.224
   30MOL    C17 1061   1.250   0.816   1.011
   30MOL    H18 1062   1.147   0.927   0.880
   30MOL    C19 1063   1.467   0.740   0.938
   30MOL    C20 1064   1.709   0.938   0.267
   30MOL    C21 1065   1.567   1.076   0.125
   30MOL    H22 1066   1.389   1.128   0.209
   30MOL    C23 1067   1.372   0.744   1.034
   30MOL    H24 1068   1.183   0.818   1.078
   30MOL    H25 1069   1.548   0.692   0.954
   30MOL    H26 1070   1.791   0.891   0.282
   30MOL    C27 1071   1.690   1.004   0.147
   30MOL    C28 1072   1.549   1.142  -0.001
   30MOL    H29 1073   1.385   0.700   1.116
   30MOL    C30 1074   1.788   1.002   0.044
   30MOL    C31 1075   1.645   1.138  -0.097
   30MOL    H32 1076   1.469   1.190  -0.017
   30MOL    C33 1077   1.767   1.066  -0.074
   30MOL    H34 1078   1.870   0.955   0.057
   30MOL    H35 1079   1.631   1.182  -0.179
   30MOL    H36 1080   1.834   1.064  -0.141
   31MOL     C1 1081   1.332   0.176   0.568
   31MOL     C2 1082   1.234   0.176   0.670
   31MOL     C3 1083   1.457   0.103   0.591
   31MOL     C4 1084   1.315   0.244   0.446
   31MOL     C5 1085   1.253   0.110   0.790
   31MOL     H6 1086   1.152   0.223   0.655
   31MOL     C7 1087   1.474   0.035   0.713
   31MOL     C8 1088   1.554   0.102   0.491
   31MOL     C9 1089   1.413   0.243   0.346
   31MOL    H10 1090   1.234   0.291   0.433
   31MOL    C11 1091   1.155   0.112   0.893
   31MOL    C12 1092   1.377   0.038   0.812
   31MOL    H13 1093   1.554  -0.013   0.729
   31MOL    H14 1094   1.636   0.055   0.504
   31MOL    C15 1095   1.537   0.171   0.369
   31MOL    C16 1096   1.396   0.311   0.224
   31MOL    C17 1097   1.176   0.048   1.011
   31MOL    H18 1098   1.074   0.159   0.880
   31MOL    C19 1099   1.394  -0.028   0.938
   31MOL    C20 1100   1.636   0.170   0.267
   31MOL    C21 1101   1.493   0.308   0.125
   31MOL    H22 1102   1.316   0.360   0.209
   31MOL    C23 1103   1.298  -0.024   1.034
   31MOL    H24 1104   1.109   0.050   1.078
   31MOL    H25 1105   1.474  -0.076   0.954
   31MOL    H26 1106   1.717   0.123   0.282
   31MOL    C27 1107   1.616   0.236   0.147
   31MOL    C28 1108   1.476   0.374  -0.001
   31MOL    H29 1109   1.312  -0.068   1.116
   31MOL    C30 1110   1.715   0.234   0.044
   31MOL    C31 1111   1.572   0.370  -0.097
   31MOL    H32 1112   1.396   0.422  -0.017
   31MOL    C33 1113   1.693   0.299  -0.074
   31MOL    H34 1114   1.796   0.187   0.057
   31MOL    H35 1115   1.558   0.415  -0.179
   31MOL    H36 1116   1.760   0.296  -0.141
   32MOL     C1 1117   0.603   1.923   3.361
   32MOL     C2 1118   0.503   1.866   3.444
   32MOL     C3 1119   0.726   1.972   3.421
   32MOL     C4 1120   0.585   1.933   3.222
   32MOL     C5 1121   0.521   1.856   3.581
   32MOL     H6 1122   0.423   1.834   3.405
   32MOL     C7 1123   0.741   1.960   3.560
   32MOL     C8 1124   0.824   2.028   3.338
   32MOL     C9 1125   0.683   1.989   3.139
   32MOL    H10 1126   0.503   1.901   3.185
   32MOL    C11 1127   0.422   1.797   3.668
   32MOL    C12 1128   0.644   1.903   3.641
   32MOL    H13 1129   0.821   1.992   3.600
   32MOL    H14 1130   0.905   2.059   3.375
   32MOL    C15 1131   0.806   2.038   3.199
   32MOL    C16 1132   0.667   2.001   3.000
   32MOL    C17 1133   0.441   1.787   3.801
   32MOL    H18 1134   0.341   1.765   3.630
   32MOL    C19 1135   0.660   1.891   3.783
   32MOL    C20 1136   0.905   2.095   3.116
   32MOL    C21 1137   0.765   2.057   2.919
   32MOL    H22 1138   0.587   1.969   2.960
   32MOL    C23 1139   0.562   1.836   3.860
   32MOL    H24 1140   0.375   1.748   3.856
   32MOL    H25 1141   0.740   1.921   3.825
   32MOL    H26 1142   0.986   2.127   3.155
   32MOL    C27 1143   0.887   2.105   2.979
   32MOL    C28 1144   0.748   2.070   2.776
   32MOL    H29 1145   0.574   1.829   3.954
   32MOL    C30 1146   0.987   2.164   2.892
   32MOL    C31 1147   0.846   2.125   2.700
   32MOL    H32 1148   0.668   2.039   2.735
   32MOL    C33 1149   0.967   2.173   2.759
   32MOL    H34 1150   1.068   2.196   2.930
   32MOL    H35 1151   0.834   2.132   2.606
   32MOL    H36 1152   1.034   2.212   2.704
   33MOL     C1 1153   1.587   0.498   1.775
   33MOL     C2 1154   1.686   0.498   1.673
   33MOL     C3 1155   1.463   0.571   1.752
   33MOL     C4 1156   1.604   0.430   1.896
   33MOL     C5 1157   1.666   0.564   1.553
   33MOL     H6 1158   1.767   0.451   1.688
   33MOL     C7 1159   1.446   0.639   1.629
   33MOL     C8 1160   1.365   0.572   1.852
   33MOL     C9 1161   1.507   0.431   1.997
   33MOL    H10 1162   1.686   0.383   1.909
   33MOL    C11 1163   1.765   0.562   1.449
   33MOL    C12 1164   1.543   0.636   1.530
   33MOL    H13 1165   1.366   0.688   1.614
   33MOL    H14 1166   1.284   0.619   1.839
   33MOL    C15 1167   1.382   0.504   1.973
   33MOL    C16 1168   1.524   0.363   2.119
   33MOL    C17 1169   1.744   0.626   1.332
   33MOL    H18 1170   1.846   0.515   1.463
   33MOL    C19 1171   1.526   0.702   1.405
   33MOL    C20 1172   1.284   0.504   2.075
   33MOL    C21 1173   1.427   0.366   2.218
   33MOL    H22 1174   1.604   0.314   2.134
   33MOL    C23 1175   1.622   0.698   1.309
   33MOL    H24 1176   1.810   0.624   1.264
   33MOL    H25 1177   1.446   0.750   1.388
   33MOL    H26 1178   1.203   0.551   2.061
   33MOL    C27 1179   1.304   0.438   2.195
   33MOL    C28 1180   1.444   0.300   2.343
   33MOL    H29 1181   1.608   0.742   1.226
   33MOL    C30 1182   1.205   0.440   2.299
   33MOL    C31 1183   1.348   0.304   2.439
   33MOL    H32 1184   1.524   0.252   2.360
   33MOL    C33 1185   1.226   0.376   2.416
   33MOL    H34 1186   1.124   0.487   2.286
   33MOL    H35 1187   1.362   0.260   2.522
   33MOL    H36 1188   1.160   0.378   2.484
   34MOL     C1 1189   1.480   1.712   0.568
   34MOL     C2 1190   1.381   1.712   0.670
   34MOL     C3 1191   1.604   1.639   0.591
   34MOL     C4 1192   1.462   1.780   0.446
   34MOL     C5 1193   1.401   1.646   0.790
   34MOL     H6 1194   1.300   1.759   0.655
   34MOL     C7 1195   1.621   1.571   0.713
   34MOL     C8 1196   1.702   1.638   0.491
   34MOL     C9 1197   1.560   1.779   0.346
   34MOL    H10 1198   1.381   1.827   0.433
   34MOL    C11 1199   1.302   1.648   0.893
   34MOL    C12 1200   1.524   1.574   0.812
   34MOL    H13 1201   1.701   1.522   0.729
   34MOL    H14 1202   1.783   1.591   0.504
   34MOL    C15 1203   1.684   1.706   0.369
   34MOL    C16 1204   1.543   1.847   0.224
   34MOL    C17 1205   1.323   1.584   1.011
   34MOL    H18 1206   1.221   1.695   0.880
   34MOL    C19 1207   1.541   1.508   0.938
   34MOL    C20 1208   1.783   1.706   0.267
   34MOL    C21 1209   1.640   1.844   0.125
   34MOL    H22 1210   1.463   1.896   0.209
   34MOL    C23 1211   1.445   1.512   1.034
   34MOL    H24 1212   1.257   1.586   1.078
   34MOL    H25 1213   1.621   1.460   0.954
   34MOL    H26 1214   1.864   1.659   0.282
   34MOL    C27 1215   1.763   1.772   0.147
   34MOL    C28 1216   1.623   1.910  -0.001
   34MOL    H29 1217   1.459   1.468   1.116
   34MOL    C30 1218   1.862   1.770   0.044
   34MOL    C31 1219   1.719   1.906  -0.097
   34MOL    H32 1220   1.543   1.958  -0.017
   34MOL    C33 1221   1.841   1.834  -0.074
   34MOL    H34 1222   1.943   1.723   0.057
   34MOL    H35 1223   1.705   1.950  -0.179
   34MOL    H36 1224   1.907   1.832  -0.141
   35MOL     C1 1225   0.829   2.478   1.794
   35MOL     C2 1226   0.928   2.535   1.710
   35MOL     C3 1227   0.706   2.429   1.733
   35MOL     C4 1228   0.847   2.468   1.932
   35MOL     C5 1229   0.911   2.545   1.573
   35MOL     H6 1230   1.009   2.567   1.749
   35MOL     C7 1231   0.691   2.441   1.594
   35MOL     C8 1232   0.608   2.373   1.816
   35MOL     C9 1233   0.749   2.412   2.015
   35MOL    H10 1234   0.929   2.499   1.970
   35MOL    C11 1235   1.010   2.604   1.487
   35MOL    C12 1236   0.788   2.498   1.513
   35MOL    H13 1237   0.610   2.409   1.554
   35MOL    H14 1238   0.527   2.342   1.779
   35MOL    C15 1239   0.626   2.363   1.955
   35MOL    C16 1240   0.765   2.400   2.155
   35MOL    C17 1241   0.990   2.613   1.353
   35MOL    H18 1242   1.091   2.636   1.524
   35MOL    C19 1243   0.772   2.510   1.371
   35MOL    C20 1244   0.527   2.306   2.038
   35MOL    C21 1245   0.667   2.344   2.236
   35MOL    H22 1246   0.845   2.432   2.195
   35MOL    C23 1247   0.870   2.565   1.295
   35MOL    H24 1248   1.057   2.653   1.298
   35MOL    H25 1249   0.692   2.479   1.330
   35MOL    H26 1250   0.446   2.274   1.999
   35MOL    C27 1251   0.545   2.296   2.176
   35MOL    C28 1252   0.684   2.331   2.378
   35MOL    H29 1253   0.858   2.572   1.200
   35MOL    C30 1254   0.445   2.237   2.262
   35MOL    C31 1255   0.586   2.276   2.454
   35MOL    H32 1256   0.764   2.362   2.419
   35MOL    C33 1257   0.465   2.228   2.395
   35MOL    H34 1258   0.364   2.205   2.224
   35MOL    H35 1259   0.598   2.269   2.548
   35MOL    H36 1260   0.398   2.188   2.450
   36MOL     C1 1261   0.676   2.691   3.361
   36MOL     C2 1262   0.577   2.634   3.444
   36MOL     C3 1263   0.799   2.740   3.421
   36MOL     C4 1264   0.658   2.701   3.222
   36MOL     C5 1265   0.595   2.624   3.581
   36MOL     H6 1266   0.496   2.602   3.405
   36MOL     C7 1267   0.815   2.728   3.560
   36MOL     C8 1268   0.897   2.795   3.338
   36MOL     C9 1269   0.756   2.757   3.139
   36MOL    H10 1270   0.577   2.669   3.185
   36MOL    C11 1271   0.495   2.565   3.668
   36MOL    C12 1272   0.717   2.671   3.641
   36MOL    H13 1273   0.895   2.759   3.600
   36MOL    H14 1274   0.979   2.827   3.375
   36MOL    C15 1275   0.879   2.806   3.199
   36MOL    C16 1276   0.741   2.769   3.000
   36MOL    C17 1277   0.515   2.555   3.801
   36MOL    H18 1278   0.414   2.533   3.630
   36MOL    C19 1279   0.734   2.659   3.783
   36MOL    C20 1280   0.979   2.863   3.116
   36MOL    C21 1281   0.838   2.825   2.919
   36MOL    H22 1282   0.661   2.737   2.960
   36MOL    C23 1283   0.636   2.604   3.860
   36MOL    H24 1284   0.448   2.516   3.856
   36MOL    H25 1285   0.814   2.689   3.825
   36MOL    H26 1286   1.059   2.895   3.155
   36MOL    C27 1287   0.961   2.873   2.979
   36MOL    C28 1288   0.822   2.838   2.776
   36MOL    H29 1289   0.648   2.597   3.954
   36MOL    C30 1290   1.060   2.931   2.892
   36MOL    C31 1291   0.920   2.893   2.700
   36MOL    H32 1292   0.742   2.807   2.735
   36MOL    C33 1293   1.041   2.941   2.759
   36MOL    H34 1294   1.141   2.964   2.930
   36MOL    H35 1295   0.908   2.899   2.606
   36MOL    H36 1296   1.107   2.980   2.704
   37MOL     C1 1297   1.784   1.155   3.361
   37MOL     C2 1298   1.685   1.098   3.444
   37MOL     C3 1299   1.907   1.204   3.421
   37MOL     C4 1300   1.766   1.165   3.222
   37MOL     C5 1301   1.703   1.088   3.581
   37MOL     H6 1302   1.604   1.066   3.405
   37MOL     C7 1303   1.923   1.192   3.560
   37MOL     C8 1304   2.005   1.260   3.338
   37MOL     C9 1305   1.864   1.221   3.139
   37MOL    H10 1306   1.685   1.134   3.185
   37MOL    C11 1307   1.603   1.029   3.668
   37MOL    C12 1308   1.825   1.135   3.641
   37MOL    H13 1309   2.003   1.224   3.600
   37MOL    H14 1310   2.087   1.291   3.375
   37MOL    C15 1311   1.987   1.270   3.199
   37MOL    C16 1312   1.849   1.233   3.000
   37MOL    C17 1313   1.623   1.020   3.801
   37MOL    H18 1314   1.522   0.997   3.630
   37MOL    C19 1315   1.841   1.123   3.783
   37MOL    C20 1316   2.086   1.327   3.116
   37MOL    C21 1317   1.946   1.290   2.919
   37MOL    H22 1318   1.768   1.201   2.960
   37MOL    C23 1319   1.744   1.068   3.860
   37MOL    H24 1320   1.556   0.980   3.856
   37MOL    H25 1321   1.921   1.154   3.825
   37MOL    H26 1322   2.167   1.359   3.155
   37MOL    C27 1323   2.069   1.337   2.979
   37MOL    C28 1324   1.930   1.302   2.776
   37MOL    H29 1325   1.756   1.061   3.954
   37MOL    C30 1326   2.168   1.396   2.892
   37MOL    C31 1327   2.028   1.357   2.700
   37MOL    H32 1328   1.850   1.271   2.735
   37MOL    C33 1329   2.148   1.405   2.759
   37MOL    H34 1330   2.249   1.428   2.930
   37MOL    H35 1331   2.016   1.364   2.606
   37MOL    H36 1332   2.215   1.445   2.704
   38MOL     C1 1333   1.734   0.827   1.955
   38MOL     C2 1334   1.635   0.770   2.038
   38MOL     C3 1335   1.857   0.876   2.015
   38MOL     C4 1336   1.716   0.838   1.816
   38MOL     C5 1337   1.653   0.760   2.176
   38MOL     H6 1338   1.554   0.738   1.999
   38MOL     C7 1339   1.873   0.864   2.155
   38MOL     C8 1340   1.955   0.932   1.932
   38MOL     C9 1341   1.814   0.893   1.733
   38MOL    H10 1342   1.635   0.806   1.779
   38MOL    C11 1343   1.553   0.702   2.262
   38MOL    C12 1344   1.775   0.808   2.236
   38MOL    H13 1345   1.953   0.896   2.195
   38MOL    H14 1346   2.036   0.964   1.970
   38MOL    C15 1347   1.937   0.942   1.794
   38MOL    C16 1348   1.798   0.905   1.594
   38MOL    C17 1349   1.573   0.692   2.395
   38MOL    H18 1350   1.472   0.669   2.224
   38MOL    C19 1351   1.791   0.795   2.378
   38MOL    C20 1352   2.036   0.999   1.710
   38MOL    C21 1353   1.896   0.962   1.513
   38MOL    H22 1354   1.718   0.874   1.554
   38MOL    C23 1355   1.693   0.740   2.454
   38MOL    H24 1356   1.506   0.653   2.450
   38MOL    H25 1357   1.871   0.826   2.419
   38MOL    H26 1358   2.117   1.031   1.749
   38MOL    C27 1359   2.018   1.009   1.573
   38MOL    C28 1360   1.880   0.974   1.371
   38MOL    H29 1361   1.706   0.734   2.548
   38MOL    C30 1362   2.118   1.068   1.487
   38MOL    C31 1363   1.977   1.030   1.295
   38MOL    H32 1364   1.800   0.944   1.330
   38MOL    C33 1365   2.098   1.078   1.353
   38MOL    H34 1366   2.199   1.100   1.524
   38MOL    H35 1367   1.965   1.036   1.200
   38MOL    H36 1368   2.165   1.117   1.298
   39MOL     C1 1369   2.011   1.710   1.794
   39MOL     C2 1370   2.110   1.767   1.710
   39MOL     C3 1371   1.888   1.661   1.733
   39MOL     C4 1372   2.029   1.700   1.932
   39MOL     C5 1373   2.092   1.777   1.573
   39MOL     H6 1374   2.190   1.799   1.749
   39MOL     C7 1375   1.872   1.673   1.594
   39MOL     C8 1376   1.790   1.606   1.816
   39MOL     C9 1377   1.931   1.644   2.015
   39MOL    H10 1378   2.110   1.732   1.970
   39MOL    C11 1379   2.192   1.836   1.487
   39MOL    C12 1380   1.970   1.730   1.513
   39MOL    H13 1381   1.792   1.641   1.554
   39MOL    H14 1382   1.708   1.574   1.779
   39MOL    C15 1383   1.807   1.595   1.955
   39MOL    C16 1384   1.946   1.632   2.155
   39MOL    C17 1385   2.172   1.846   1.353
   39MOL    H18 1386   2.273   1.868   1.524
   39MOL    C19 1387   1.953   1.742   1.371
   39MOL    C20 1388   1.708   1.538   2.038
   39MOL    C21 1389   1.849   1.576   2.236
   39MOL    H22 1390   2.026   1.664   2.195
   39MOL    C23 1391   2.051   1.797   1.295
   39MOL    H24 1392   2.239   1.885   1.298
   39MOL    H25 1393   1.873   1.712   1.330
   39MOL    H26 1394   1.628   1.506   1.999
   39MOL    C27 1395   1.726   1.528   2.176
   39MOL    C28 1396   1.865   1.563   2.378
   39MOL    H29 1397   2.039   1.804   1.200
   39MOL    C30 1398   1.627   1.469   2.262
   39MOL    C31 1399   1.767   1.508   2.454
   39MOL    H32 1400   1.945   1.594   2.419
   39MOL    C33 1401   1.646   1.460   2.395
   39MOL    H34 1402   1.546   1.437   2.224
   39MOL    H35 1403   1.779   1.502   2.548
   39MOL    H36 1404   1.579   1.421   2.450
   40MOL     C1 1405   1.858   1.923   3.361
   40MOL     C2 1406   1.758   1.866   3.444
   40MOL     C3 1407   1.981   1.972   3.421
   40MOL     C4 1408   1.840   1.933   3.222
   40MOL     C5 1409   1.776   1.856   3.581
   40MOL     H6 1410   1.678   1.834   3.405
   40MOL     C7 1411   1.996   1.960   3.560
   40MOL     C8 1412   2.079   2.028   3.338
   40MOL     C9 1413   1.938   1.989   3.139
   40MOL    H10 1414   1.758   1.901   3.185
   40MOL    C11 1415   1.677   1.797   3.668
   40MOL    C12 1416   1.899   1.903   3.641
   40MOL    H13 1417   2.076   1.992   3.600
   40MOL    H14 1418   2.160   2.059   3.375
   40MOL    C15 1419   2.061   2.038   3.199
   40MOL    C16 1420   1.922   2.001   3.000
   40MOL    C17 1421   1.696   1.787   3.801
   40MOL    H18 1422   1.596   1.765   3.630
   40MOL    C19 1423   1.915   1.891   3.783
   40MOL    C20 1424   2.160   2.095   3.116
   40MOL    C21 1425   2.020   2.057   2.919
   40MOL    H22 1426   1.842   1.969   2.960
   40MOL    C23 1427   1.817   1.836   3.860
   40MOL    H24 1428   1.630   1.748   3.856
   40MOL    H25 1429   1.995   1.921   3.825
   40MOL    H26 1430   2.241   2.127   3.155
   40MOL    C27 1431   2.142   2.105   2.979
   40MOL    C28 1432   2.003   2.070   2.776
   40MOL    H29 1433   1.829   1.829   3.954
   40MOL    C30 1434   2.242   2.164   2.892
   40MOL    C31 1435   2.101   2.125   2.700
   40MOL    H32 1436   1.923   2.039   2.735
   40MOL    C33 1437   2.222   2.173   2.759
   40MOL    H34 1438   2.323   2.196   2.930
   40MOL    H35 1439   2.089   2.132   2.606
   40MOL    H36 1440   2.289   2.212   2.704
   41MOL     C1 1441   1.931   2.691   3.361
   41MOL     C2 1442   1.832   2.634   3.444
   41MOL     C3 1443   2.054   2.740   3.421
   41MOL     C4 1444   1.913   2.701   3.222
   41MOL     C5 1445   1.850   2.624   3.581
   41MOL     H6 1446   1.751   2.602   3.405
   41MOL     C7 1447   2.070   2.728   3.560
   41MOL     C8 1448   2.152   2.795   3.338
   41MOL     C9 1449   2.011   2.757   3.139
   41MOL    H10 1450   1.832   2.669   3.185
   41MOL    C11 1451   1.750   2.565   3.668
   41MOL    C12 1452   1.972   2.671   3.641
   41MOL    H13 1453   2.150   2.759   3.600
   41MOL    H14 1454   2.234   2.827   3.375
   41MOL    C15 1455   2.134   2.806   3.199
   41MOL    C16 1456   1.996   2.769   3.000
   41MOL    C17 1457   1.770   2.555   3.801
   41MOL    H18 1458   1.669   2.533   3.630
   41MOL    C19 1459   1.989   2.659   3.783
   41MOL    C20 1460   2.234   2.863   3.116
   41MOL    C21 1461   2.093   2.825   2.919
   41MOL    H22 1462   1.916   2.737   2.960
   41MOL    C23 1463   1.891   2.604   3.860
   41MOL    H24 1464   1.703   2.516   3.856
   41MOL    H25 1465   2.069   2.689   3.825
   41MOL    H26 1466   2.314   2.895   3.155
   41MOL    C27 1467   2.216   2.873   2.979
   41MOL    C28 1468   2.077   2.838   2.776
   41MOL    H29 1469   1.903   2.597   3.954
   41MOL    C30 1470   2.315   2.931   2.892
   41MOL    C31 1471   2.175   2.893   2.700
   41MOL    H32 1472   1.997   2.807   2.735
   41MOL    C33 1473   2.296   2.941   2.759
   41MOL    H34 1474   2.396   2.964   2.930
   41MOL    H35 1475   2.163   2.899   2.606
   41MOL    H36 1476   2.362   2.980   2.704
   42MOL     C1 1477   1.684   0.500   0.549
   42MOL     C2 1478   1.585   0.443   0.632
   42MOL     C3 1479   1.807   0.549   0.610
   42MOL     C4 1480   1.666   0.510   0.411
   42MOL     C5 1481   1.602   0.433   0.770
   42MOL     H6 1482   1.504   0.411   0.594
   42MOL     C7 1483   1.822   0.537   0.749
   42MOL     C8 1484   1.905   0.604   0.527
   42MOL     C9 1485   1.764   0.566   0.327
   42MOL    H10 1486   1.584   0.478   0.373
   42MOL    C11 1487   1.503   0.374   0.856
   42MOL    C12 1488   1.725   0.480   0.830
   42MOL    H13 1489   1.903   0.568   0.789
   42MOL    H14 1490   1.986   0.636   0.564
   42MOL    C15 1491   1.887   0.615   0.388
   42MOL    C16 1492   1.748   0.578   0.188
   42MOL    C17 1493   1.523   0.364   0.990
   42MOL    H18 1494   1.422   0.342   0.819
   42MOL    C19 1495   1.741   0.468   0.972
   42MOL    C20 1496   1.986   0.672   0.305
   42MOL    C21 1497   1.846   0.634   0.107
   42MOL    H22 1498   1.668   0.546   0.148
   42MOL    C23 1499   1.643   0.412   1.048
   42MOL    H24 1500   1.456   0.325   1.045
   42MOL    H25 1501   1.821   0.498   1.013
   42MOL    H26 1502   2.067   0.704   0.344
   42MOL    C27 1503   1.968   0.682   0.167
   42MOL    C28 1504   1.829   0.647  -0.035
   42MOL    H29 1505   1.655   0.406   1.142
   42MOL    C30 1506   2.068   0.740   0.081
   42MOL    C31 1507   1.927   0.702  -0.111
   42MOL    H32 1508   1.749   0.616  -0.076
   42MOL    C33 1509   2.048   0.750  -0.053
   42MOL    H34 1510   2.149   0.773   0.118
   42MOL    H35 1511   1.915   0.708  -0.205
   42MOL    H36 1512   2.115   0.789  -0.108
   43MOL     C1 1513   1.757   1.268   0.549
   43MOL     C2 1514   1.658   1.210   0.632
   43MOL     C3 1515   1.880   1.316   0.610
   43MOL     C4 1516   1.739   1.278   0.411
   43MOL     C5 1517   1.676   1.200   0.770
   43MOL     H6 1518   1.578   1.178   0.594
   43MOL     C7 1519   1.896   1.304   0.749
   43MOL     C8 1520   1.979   1.372   0.527
   43MOL     C9 1521   1.838   1.334   0.327
   43MOL    H10 1522   1.658   1.246   0.373
   43MOL    C11 1523   1.576   1.142   0.856
   43MOL    C12 1524   1.798   1.248   0.830
   43MOL    H13 1525   1.976   1.336   0.789
   43MOL    H14 1526   2.060   1.404   0.564
   43MOL    C15 1527   1.961   1.382   0.388
   43MOL    C16 1528   1.822   1.346   0.188
   43MOL    C17 1529   1.596   1.132   0.990
   43MOL    H18 1530   1.495   1.109   0.819
   43MOL    C19 1531   1.815   1.235   0.972
   43MOL    C20 1532   2.060   1.440   0.305
   43MOL    C21 1533   1.919   1.402   0.107
   43MOL    H22 1534   1.742   1.314   0.148
   43MOL    C23 1535   1.717   1.180   1.048
   43MOL    H24 1536   1.529   1.093   1.045
   43MOL    H25 1537   1.895   1.266   1.013
   43MOL    H26 1538   2.140   1.472   0.344
   43MOL    C27 1539   2.042   1.450   0.167
   43MOL    C28 1540   1.903   1.415  -0.035
   43MOL    H29 1541   1.729   1.174   1.142
   43MOL    C30 1542   2.142   1.508   0.081
   43MOL    C31 1543   2.001   1.470  -0.111
   43MOL    H32 1544   1.823   1.384  -0.076
   43MOL    C33 1545   2.122   1.518  -0.053
   43MOL    H34 1546   2.223   1.541   0.118
   43MOL    H35 1547   1.989   1.476  -0.205
   43MOL    H36 1548   2.189   1.557  -0.108
   44MOL     C1 1549   2.084   2.478   1.794
   44MOL     C2 1550   2.184   2.535   1.710
   44MOL     C3 1551   1.961   2.429   1.733
   44MOL     C4 1552   2.102   2.468   1.932
   44MOL     C5 1553   2.166   2.545   1.573
   44MOL     H6 1554   2.264   2.567   1.749
   44MOL     C7 1555   1.946   2.441   1.594
   44MOL     C8 1556   1.863   2.373   1.816
   44MOL     C9 1557   2.004   2.412   2.015
   44MOL    H10 1558   2.184   2.499   1.970
   44MOL    C11 1559   2.265   2.604   1.487
   44MOL    C12 1560   2.043   2.498   1.513
   44MOL    H13 1561   1.865   2.409   1.554
   44MOL    H14 1562   1.782   2.342   1.779
   44MOL    C15 1563   1.881   2.363   1.955
   44MOL    C16 1564   2.020   2.400   2.155
   44MOL    C17 1565   2.245   2.613   1.353
   44MOL    H18 1566   2.346   2.636   1.524
   44MOL    C19 1567   2.027   2.510   1.371
   44MOL    C20 1568   1.782   2.306   2.038
   44MOL    C21 1569   1.922   2.344   2.236
   44MOL    H22 1570   2.100   2.432   2.195
   44MOL    C23 1571   2.125   2.565   1.295
   44MOL    H24 1572   2.312   2.653   1.298
   44MOL    H25 1573   1.947   2.479   1.330
   44MOL    H26 1574   1.701   2.274   1.999
   44MOL    C27 1575   1.800   2.296   2.176
   44MOL    C28 1576   1.939   2.331   2.378
   44MOL    H29 1577   2.113   2.572   1.200
   44MOL    C30 1578   1.700   2.237   2.262
   44MOL    C31 1579   1.841   2.276   2.454
   44MOL    H32 1580   2.019   2.362   2.419
   44MOL    C33 1581   1.720   2.228   2.395
   44MOL    H34 1582   1.619   2.205   2.224
   44MOL    H35 1583   1.853   2.269   2.548
   44MOL    H36 1584   1.653   2.188   2.450
   45MOL     C1 1585   1.831   2.036   0.549
   45MOL     C2 1586   1.732   1.978   0.632
   45MOL     C3 1587   1.954   2.084   0.610
   45MOL     C4 1588   1.813   2.046   0.411
   45MOL     C5 1589   1.750   1.968   0.770
   45MOL     H6 1590   1.651   1.946   0.594
   45MOL     C7 1591   1.970   2.072   0.749
   45MOL     C8 1592   2.052   2.140   0.527
   45MOL     C9 1593   1.911   2.101   0.327
   45MOL    H10 1594   1.732   2.014   0.373
   45MOL    C11 1595   1.650   1.910   0.856
   45MOL    C12 1596   1.872   2.016   0.830
   45MOL    H13 1597   2.050   2.104   0.789
   45MOL    H14 1598   2.133   2.172   0.564
   45MOL    C15 1599   2.034   2.150   0.388
   45MOL    C16 1600   1.895   2.113   0.188
   45MOL    C17 1601   1.670   1.900   0.990
   45MOL    H18 1602   1.569   1.877   0.819
   45MOL    C19 1603   1.888   2.003   0.972
   45MOL    C20 1604   2.133   2.207   0.305
   45MOL    C21 1605   1.993   2.170   0.107
   45MOL    H22 1606   1.815   2.082   0.148
   45MOL    C23 1607   1.791   1.948   1.048
   45MOL    H24 1608   1.603   1.861   1.045
   45MOL    H25 1609   1.968   2.034   1.013
   45MOL    H26 1610   2.214   2.239   0.344
   45MOL    C27 1611   2.116   2.217   0.167
   45MOL    C28 1612   1.977   2.182  -0.035
   45MOL    H29 1613   1.803   1.942   1.142
   45MOL    C30 1614   2.215   2.276   0.081
   45MOL    C31 1615   2.075   2.238  -0.111
   45MOL    H32 1616   1.897   2.152  -0.076
   45MOL    C33 1617   2.195   2.286  -0.053
   45MOL    H34 1618   2.296   2.308   0.118
   45MOL    H35 1619   2.062   2.244  -0.205
   45MOL    H36 1620   2.262   2.325  -0.108
   46MOL     C1 1621   0.406   1.266   1.775
   46MOL     C2 1622   0.504   1.266   1.673
   46MOL     C3 1623   0.282   1.339   1.752
   46MOL     C4 1624   0.423   1.198   1.896
   46MOL     C5 1625   0.485   1.331   1.553
   46MOL     H6 1626   0.586   1.219   1.688
   46MOL     C7 1627   0.264   1.407   1.629
   46MOL     C8 1628   0.184   1.339   1.852
   46MOL     C9 1629   0.325   1.199   1.997
   46MOL    H10 1630   0.504   1.151   1.909
   46MOL    C11 1631   0.583   1.330   1.449
   46MOL    C12 1632   0.362   1.404   1.530
   46MOL    H13 1633   0.184   1.455   1.614
   46MOL    H14 1634   0.103   1.387   1.839
   46MOL    C15 1635   0.201   1.271   1.973
   46MOL    C16 1636   0.342   1.131   2.119
   46MOL    C17 1637   0.562   1.394   1.332
   46MOL    H18 1638   0.665   1.283   1.463
   46MOL    C19 1639   0.345   1.470   1.405
   46MOL    C20 1640   0.103   1.272   2.075
   46MOL    C21 1641   0.245   1.134   2.218
   46MOL    H22 1642   0.423   1.082   2.134
   46MOL    C23 1643   0.440   1.466   1.309
   46MOL    H24 1644   0.629   1.392   1.264
   46MOL    H25 1645   0.264   1.518   1.388
   46MOL    H26 1646   0.021   1.319   2.061
   46MOL    C27 1647   0.122   1.206   2.195
   46MOL    C28 1648   0.262   1.068   2.343
   46MOL    H29 1649   0.426   1.510   1.226
   46MOL    C30 1650   0.024   1.208   2.299
   46MOL    C31 1651   0.167   1.072   2.439
   46MOL    H32 1652   0.343   1.019   2.360
   46MOL    C33 1653   0.045   1.143   2.416
   46MOL    H34 1654  -0.058   1.255   2.286
   46MOL    H35 1655   0.180   1.027   2.522
   46MOL    H36 1656  -0.022   1.146   2.484
   47MOL     C1 1657   0.356   0.938   0.369
   47MOL     C2 1658   0.454   0.938   0.267
   47MOL     C3 1659   0.231   1.011   0.346
   47MOL     C4 1660   0.373   0.870   0.491
   47MOL     C5 1661   0.435   1.004   0.147
   47MOL     H6 1662   0.536   0.891   0.282
   47MOL     C7 1663   0.214   1.079   0.224
   47MOL     C8 1664   0.134   1.012   0.446
   47MOL     C9 1665   0.275   0.871   0.591
   47MOL    H10 1666   0.454   0.823   0.504
   47MOL    C11 1667   0.533   1.002   0.044
   47MOL    C12 1668   0.312   1.076   0.125
   47MOL    H13 1669   0.134   1.128   0.209
   47MOL    H14 1670   0.052   1.059   0.433
   47MOL    C15 1671   0.151   0.944   0.568
   47MOL    C16 1672   0.292   0.803   0.713
   47MOL    C17 1673   0.512   1.066  -0.074
   47MOL    H18 1674   0.615   0.955   0.057
   47MOL    C19 1675   0.294   1.142  -0.001
   47MOL    C20 1676   0.052   0.944   0.670
   47MOL    C21 1677   0.195   0.806   0.812
   47MOL    H22 1678   0.372   0.754   0.729
   47MOL    C23 1679   0.390   1.138  -0.097
   47MOL    H24 1680   0.579   1.064  -0.141
   47MOL    H25 1681   0.214   1.190  -0.017
   47MOL    H26 1682  -0.029   0.991   0.655
   47MOL    C27 1683   0.072   0.878   0.790
   47MOL    C28 1684   0.212   0.740   0.938
   47MOL    H29 1685   0.376   1.182  -0.179
   47MOL    C30 1686  -0.026   0.880   0.893
   47MOL    C31 1687   0.116   0.744   1.034
   47MOL    H32 1688   0.293   0.692   0.954
   47MOL    C33 1689  -0.005   0.816   1.011
   47MOL    H34 1690  -0.108   0.927   0.880
   47MOL    H35 1691   0.130   0.700   1.116
   47MOL    H36 1692  -0.072   0.818   1.078
   48MOL     C1 1693   0.456   1.594   3.181
   48MOL     C2 1694   0.554   1.593   3.079
   48MOL     C3 1695   0.332   1.667   3.157
   48MOL     C4 1696   0.473   1.526   3.302
   48MOL     C5 1697   0.535   1.659   2.959
   48MOL     H6 1698   0.636   1.546   3.093
   48MOL     C7 1699   0.315   1.734   3.035
   48MOL     C8 1700   0.234   1.667   3.258
   48MOL     C9 1701   0.376   1.526   3.402
   48MOL    H10 1702   0.554   1.478   3.315
   48MOL    C11 1703   0.633   1.657   2.855
   48MOL    C12 1704   0.412   1.732   2.936
   48MOL    H13 1705   0.234   1.783   3.020
   48MOL    H14 1706   0.153   1.714   3.245
   48MOL    C15 1707   0.251   1.599   3.379
   48MOL    C16 1708   0.393   1.459   3.525
   48MOL    C17 1709   0.612   1.722   2.738
   48MOL    H18 1710   0.715   1.611   2.869
   48MOL    C19 1711   0.395   1.798   2.811
   48MOL    C20 1712   0.153   1.600   3.481
   48MOL    C21 1713   0.295   1.461   3.624
   48MOL    H22 1714   0.473   1.410   3.540
   48MOL    C23 1715   0.490   1.793   2.715
   48MOL    H24 1716   0.679   1.720   2.670
   48MOL    H25 1717   0.314   1.846   2.794
   48MOL    H26 1718   0.071   1.646   3.467
   48MOL    C27 1719   0.172   1.534   3.601
   48MOL    C28 1720   0.313   1.395   3.749
   48MOL    H29 1721   0.477   1.838   2.632
   48MOL    C30 1722   0.074   1.535   3.705
   48MOL    C31 1723   0.217   1.400   3.845
   48MOL    H32 1724   0.393   1.347   3.766
   48MOL    C33 1725   0.095   1.471   3.822
   48MOL    H34 1726  -0.008   1.582   3.691
   48MOL    H35 1727   0.231   1.355   3.928
   48MOL    H36 1728   0.028   1.473   3.890
   49MOL     C1 1729   0.077   0.176   0.568
   49MOL     C2 1730  -0.021   0.176   0.670
   49MOL     C3 1731   0.202   0.103   0.591
   49MOL     C4 1732   0.060   0.244   0.446
   49MOL     C5 1733  -0.002   0.110   0.790
   49MOL     H6 1734  -0.103   0.223   0.655
   49MOL     C7 1735   0.219   0.035   0.713
   49MOL     C8 1736   0.299   0.102   0.491
   49MOL     C9 1737   0.158   0.243   0.346
   49MOL    H10 1738  -0.021   0.291   0.433
   49MOL    C11 1739  -0.100   0.112   0.893
   49MOL    C12 1740   0.121   0.038   0.812
   49MOL    H13 1741   0.299  -0.013   0.729
   49MOL    H14 1742   0.381   0.055   0.504
   49MOL    C15 1743   0.282   0.171   0.369
   49MOL    C16 1744   0.141   0.311   0.224
   49MOL    C17 1745  -0.079   0.048   1.011
   49MOL    H18 1746  -0.182   0.159   0.880
   49MOL    C19 1747   0.139  -0.028   0.938
   49MOL    C20 1748   0.381   0.170   0.267
   49MOL    C21 1749   0.238   0.308   0.125
   49MOL    H22 1750   0.061   0.360   0.209
   49MOL    C23 1751   0.043  -0.024   1.034
   49MOL    H24 1752  -0.146   0.050   1.078
   49MOL    H25 1753   0.219  -0.076   0.954
   49MOL    H26 1754   0.462   0.123   0.282
   49MOL    C27 1755   0.361   0.236   0.147
   49MOL    C28 1756   0.221   0.374  -0.001
   49MOL    H29 1757   0.057  -0.068   1.116
   49MOL    C30 1758   0.459   0.234   0.044
   49MOL    C31 1759   0.317   0.370  -0.097
   49MOL    H32 1760   0.141   0.422  -0.017
   49MOL    C33 1761   0.438   0.299  -0.074
   49MOL    H34 1762   0.541   0.187   0.057
   49MOL    H35 1763   0.303   0.415  -0.179
   49MOL    H36 1764   0.505   0.296  -0.141
   50MOL     C1 1765   0.178   0.831   3.379
   50MOL     C2 1766   0.079   0.832   3.481
   50MOL     C3 1767   0.302   0.758   3.402
   50MOL     C4 1768   0.160   0.899   3.258
   50MOL     C5 1769   0.099   0.766   3.601
   50MOL     H6 1770  -0.002   0.879   3.467
   50MOL     C7 1771   0.319   0.691   3.525
   50MOL     C8 1772   0.399   0.758   3.302
   50MOL     C9 1773   0.258   0.899   3.157
   50MOL    H10 1774   0.079   0.947   3.245
   50MOL    C11 1775   0.000   0.768   3.705
   50MOL    C12 1776   0.222   0.693   3.624
   50MOL    H13 1777   0.399   0.642   3.540
   50MOL    H14 1778   0.481   0.711   3.315
   50MOL    C15 1779   0.382   0.826   3.181
   50MOL    C16 1780   0.241   0.966   3.035
   50MOL    C17 1781   0.021   0.703   3.822
   50MOL    H18 1782  -0.081   0.814   3.691
   50MOL    C19 1783   0.239   0.627   3.749
   50MOL    C20 1784   0.481   0.825   3.079
   50MOL    C21 1785   0.338   0.964   2.936
   50MOL    H22 1786   0.161   1.015   3.020
   50MOL    C23 1787   0.143   0.632   3.845
   50MOL    H24 1788  -0.045   0.706   3.890
   50MOL    H25 1789   0.319   0.579   3.766
   50MOL    H26 1790   0.562   0.779   3.093
   50MOL    C27 1791   0.461   0.891   2.959
   50MOL    C28 1792   0.321   1.030   2.811
   50MOL    H29 1793   0.157   0.587   3.928
   50MOL    C30 1794   0.560   0.890   2.855
   50MOL    C31 1795   0.417   1.025   2.715
   50MOL    H32 1796   0.241   1.078   2.794
   50MOL    C33 1797   0.539   0.954   2.738
   50MOL    H34 1798   0.641   0.843   2.869
   50MOL    H35 1799   0.403   1.070   2.632
   50MOL    H36 1800   0.605   0.952   2.670
   51MOL     C1 1801   0.332   0.498   1.775
   51MOL     C2 1802   0.431   0.498   1.673
   51MOL     C3 1803   0.208   0.571   1.752
   51MOL     C4 1804   0.349   0.430   1.896
   51MOL     C5 1805   0.411   0.564   1.553
   51MOL     H6 1806   0.512   0.451   1.688
   51MOL     C7 1807   0.191   0.639   1.629
   51MOL     C8 1808   0.110   0.572   1.852
   51MOL     C9 1809   0.252   0.431   1.997
   51MOL    H10 1810   0.431   0.383   1.909
   51MOL    C11 1811   0.510   0.562   1.449
   51MOL    C12 1812   0.288   0.636   1.530
   51MOL    H13 1813   0.111   0.688   1.614
   51MOL    H14 1814   0.029   0.619   1.839
   51MOL    C15 1815   0.127   0.504   1.973
   51MOL    C16 1816   0.269   0.363   2.119
   51MOL    C17 1817   0.488   0.626   1.332
   51MOL    H18 1818   0.591   0.515   1.463
   51MOL    C19 1819   0.271   0.702   1.405
   51MOL    C20 1820   0.029   0.504   2.075
   51MOL    C21 1821   0.172   0.366   2.218
   51MOL    H22 1822   0.349   0.314   2.134
   51MOL    C23 1823   0.367   0.698   1.309
   51MOL    H24 1824   0.555   0.624   1.264
   51MOL    H25 1825   0.191   0.750   1.388
   51MOL    H26 1826  -0.052   0.551   2.061
   51MOL    C27 1827   0.049   0.438   2.195
   51MOL    C28 1828   0.189   0.300   2.343
   51MOL    H29 1829   0.353   0.742   1.226
   51MOL    C30 1830  -0.050   0.440   2.299
   51MOL    C31 1831   0.093   0.304   2.439
   51MOL    H32 1832   0.269   0.252   2.360
   51MOL    C33 1833  -0.029   0.376   2.416
   51MOL    H34 1834  -0.131   0.487   2.286
   51MOL    H35 1835   0.107   0.260   2.522
   51MOL    H36 1836  -0.095   0.378   2.484
   52MOL     C1 1837   0.480   2.034   1.775
   52MOL     C2 1838   0.578   2.033   1.673
   52MOL     C3 1839   0.355   2.107   1.752
   52MOL     C4 1840   0.497   1.966   1.896
   52MOL     C5 1841   0.558   2.099   1.553
   52MOL     H6 1842   0.659   1.987   1.688
   52MOL     C7 1843   0.338   2.174   1.629
   52MOL     C8 1844   0.258   2.107   1.852
   52MOL     C9 1845   0.399   1.966   1.997
   52MOL    H10 1846   0.578   1.919   1.909
   52MOL    C11 1847   0.657   2.098   1.449
   52MOL    C12 1848   0.435   2.172   1.530
   52MOL    H13 1849   0.258   2.223   1.614
   52MOL    H14 1850   0.176   2.155   1.839
   52MOL    C15 1851   0.275   2.039   1.973
   52MOL    C16 1852   0.416   1.899   2.119
   52MOL    C17 1853   0.636   2.162   1.332
   52MOL    H18 1854   0.738   2.051   1.463
   52MOL    C19 1855   0.418   2.238   1.405
   52MOL    C20 1856   0.176   2.040   2.075
   52MOL    C21 1857   0.319   1.901   2.218
   52MOL    H22 1858   0.496   1.850   2.134
   52MOL    C23 1859   0.514   2.233   1.309
   52MOL    H24 1860   0.702   2.160   1.264
   52MOL    H25 1861   0.338   2.286   1.388
   52MOL    H26 1862   0.095   2.087   2.061
   52MOL    C27 1863   0.196   1.974   2.195
   52MOL    C28 1864   0.336   1.835   2.343
   52MOL    H29 1865   0.500   2.278   1.226
   52MOL    C30 1866   0.097   1.976   2.299
   52MOL    C31 1867   0.240   1.840   2.439
   52MOL    H32 1868   0.416   1.787   2.360
   52MOL    C33 1869   0.118   1.911   2.416
   52MOL    H34 1870   0.016   2.022   2.286
   52MOL    H35 1871   0.254   1.795   2.522
   52MOL    H36 1872   0.052   1.914   2.484
   53MOL     C1 1873   0.530   2.362   3.181
   53MOL     C2 1874   0.628   2.361   3.079
   53MOL     C3 1875   0.405   2.435   3.157
   53MOL     C4 1876   0.547   2.294   3.302
   53MOL     C5 1877   0.609   2.427   2.959
   53MOL     H6 1878   0.710   2.314   3.093
   53MOL     C7 1879   0.388   2.502   3.035
   53MOL     C8 1880   0.308   2.435   3.258
   53MOL     C9 1881   0.449   2.294   3.402
   53MOL    H10 1882   0.628   2.246   3.315
   53MOL    C11 1883   0.707   2.425   2.855
   53MOL    C12 1884   0.485   2.499   2.936
   53MOL    H13 1885   0.308   2.551   3.020
   53MOL    H14 1886   0.226   2.482   3.245
   53MOL    C15 1887   0.325   2.367   3.379
   53MOL    C16 1888   0.466   2.226   3.525
   53MOL    C17 1889   0.686   2.490   2.738
   53MOL    H18 1890   0.788   2.378   2.869
   53MOL    C19 1891   0.468   2.565   2.811
   53MOL    C20 1892   0.226   2.368   3.481
   53MOL    C21 1893   0.369   2.229   3.624
   53MOL    H22 1894   0.546   2.178   3.540
   53MOL    C23 1895   0.564   2.561   2.715
   53MOL    H24 1896   0.752   2.487   2.670
   53MOL    H25 1897   0.388   2.614   2.794
   53MOL    H26 1898   0.145   2.414   3.467
   53MOL    C27 1899   0.246   2.302   3.601
   53MOL    C28 1900   0.386   2.163   3.749
   53MOL    H29 1901   0.550   2.606   2.632
   53MOL    C30 1902   0.147   2.303   3.705
   53MOL    C31 1903   0.290   2.167   3.845
   53MOL    H32 1904   0.466   2.115   3.766
   53MOL    C33 1905   0.169   2.239   3.822
   53MOL    H34 1906   0.066   2.350   3.691
   53MOL    H35 1907   0.304   2.123   3.928
   53MOL    H36 1908   0.102   2.241   3.890
   54MOL     C1 1909   0.224   1.712   0.568
   54MOL     C2 1910   0.126   1.712   0.670
   54MOL     C3 1911   0.349   1.639   0.591
   54MOL     C4 1912   0.207   1.780   0.446
   54MOL     C5 1913   0.146   1.646   0.790
   54MOL     H6 1914   0.045   1.759   0.655
   54MOL     C7 1915   0.366   1.571   0.713
   54MOL     C8 1916   0.446   1.638   0.491
   54MOL     C9 1917   0.305   1.779   0.346
   54MOL    H10 1918   0.126   1.827   0.433
   54MOL    C11 1919   0.047   1.648   0.893
   54MOL    C12 1920   0.269   1.574   0.812
   54MOL    H13 1921   0.446   1.522   0.729
   54MOL    H14 1922   0.528   1.591   0.504
   54MOL    C15 1923   0.429   1.706   0.369
   54MOL    C16 1924   0.288   1.847   0.224
   54MOL    C17 1925   0.068   1.584   1.011
   54MOL    H18 1926  -0.034   1.695   0.880
   54MOL    C19 1927   0.286   1.508   0.938
   54MOL    C20 1928   0.528   1.706   0.267
   54MOL    C21 1929   0.385   1.844   0.125
   54MOL    H22 1930   0.208   1.896   0.209
   54MOL    C23 1931   0.190   1.512   1.034
   54MOL    H24 1932   0.002   1.586   1.078
   54MOL    H25 1933   0.366   1.460   0.954
   54MOL    H26 1934   0.609   1.659   0.282
   54MOL    C27 1935   0.508   1.772   0.147
   54MOL    C28 1936   0.368   1.910  -0.001
   54MOL    H29 1937   0.204   1.468   1.116
   54MOL    C30 1938   0.607   1.770   0.044
   54MOL    C31 1939   0.464   1.906  -0.097
   54MOL    H32 1940   0.288   1.958  -0.017
   54MOL    C33 1941   0.586   1.834  -0.074
   54MOL    H34 1942   0.688   1.723   0.057
   54MOL    H35 1943   0.450   1.950  -0.179
   54MOL    H36 1944   0.652   1.832  -0.141
   1.88259   2.30358   4.21704   0.00000   0.00000   0.22084   0.00000   0.15038   0.98305
