Generated with MDTraj, t= 0.0
 1944
    1MOL    C00    1   0.774   0.948   0.573
    1MOL    C01    2   0.680   0.943   0.684
    1MOL    C02    3   0.896   0.889   0.597
    1MOL    C03    4   0.761   1.015   0.448
    1MOL    C04    5   0.700   0.895   0.815
    1MOL    H05    6   0.581   0.985   0.659
    1MOL    C06    7   0.913   0.830   0.725
    1MOL    C07    8   0.986   0.887   0.488
    1MOL    C08    9   0.855   1.022   0.343
    1MOL    H09   10   0.665   1.063   0.438
    1MOL    C0A   11   0.602   0.899   0.922
    1MOL    C0B   12   0.824   0.827   0.835
    1MOL    H0C   13   1.009   0.780   0.740
    1MOL    H0D   14   1.081   0.833   0.502
    1MOL    C0E   15   0.977   0.959   0.361
    1MOL    C0F   16   0.841   1.088   0.220
    1MOL    C0G   17   0.625   0.827   1.045
    1MOL    H0H   18   0.509   0.945   0.904
    1MOL    C0I   19   0.848   0.771   0.968
    1MOL    C0J   20   1.074   0.960   0.251
    1MOL    C0K   21   0.929   1.080   0.110
    1MOL    H0M   22   0.757   1.153   0.207
    1MOL    C0N   23   0.750   0.769   1.071
    1MOL    H0O   24   0.541   0.824   1.114
    1MOL    H0P   25   0.932   0.713   0.985
    1MOL    H0Q   26   1.161   0.905   0.280
    1MOL    C0R   27   1.050   1.002   0.122
    1MOL    C0S   28   0.912   1.147  -0.013
    1MOL    H0T   29   0.764   0.725   1.160
    1MOL    C0U   30   1.140   0.993   0.013
    1MOL    C0V   31   1.000   1.127  -0.122
    1MOL    H0W   32   0.815   1.193  -0.033
    1MOL    C0X   33   1.116   1.051  -0.109
    1MOL    H0Y   34   1.234   0.937   0.029
    1MOL    H0Z   35   0.965   1.163  -0.217
    1MOL    H10   36   1.192   1.035  -0.189
    1MOL    C00   38   0.978   0.499   1.795
    1MOL    C01   39   1.074   0.498   1.684
    1MOL    C02   40   0.860   0.568   1.770
    1MOL    C03   41   0.988   0.435   1.918
    1MOL    C04   42   1.058   0.559   1.559
    1MOL    H05   43   1.163   0.438   1.696
    1MOL    C06   44   0.847   0.635   1.644
    1MOL    C07   45   0.754   0.560   1.864
    1MOL    C08   46   0.885   0.428   2.020
    1MOL    H09   47   1.086   0.390   1.946
    1MOL    C0A   48   1.145   0.545   1.454
    1MOL    C0B   49   0.940   0.635   1.540
    1MOL    H0C   50   0.755   0.693   1.617
    1MOL    H0D   51   0.654   0.602   1.835
    1MOL    C0E   52   0.770   0.499   1.990
    1MOL    C0F   53   0.888   0.361   2.141
    1MOL    C0G   54   1.125   0.607   1.331
    1MOL    H0H   55   1.239   0.481   1.466
    1MOL    C0I   56   0.923   0.699   1.413
    1MOL    C0J   57   0.667   0.491   2.090
    1MOL    C0K   58   0.800   0.368   2.250
    1MOL    H0M   59   0.984   0.309   2.151
    1MOL    C0N   60   1.010   0.686   1.308
    1MOL    H0O   61   1.201   0.603   1.252
    1MOL    H0P   62   0.837   0.755   1.389
    1MOL    H0Q   63   0.578   0.542   2.064
    1MOL    C0R   64   0.684   0.445   2.219
    1MOL    C0S   65   0.812   0.302   2.374
    1MOL    H0T   66   0.995   0.735   1.214
    1MOL    C0U   67   0.587   0.452   2.323
    1MOL    C0V   68   0.717   0.303   2.474
    1MOL    H0W   69   0.892   0.246   2.379
    1MOL    C0X   70   0.604   0.389   2.449
    1MOL    H0Y   71   0.501   0.507   2.288
    1MOL    H0Z   72   0.736   0.257   2.566
    1MOL    H10   73   0.527   0.406   2.524
    1MOL    C00   75   0.818   0.845   3.390
    1MOL    C01   76   0.728   0.828   3.497
    1MOL    C02   77   0.945   0.782   3.417
    1MOL    C03   78   0.805   0.908   3.267
    1MOL    C04   79   0.740   0.765   3.619
    1MOL    H05   80   0.634   0.865   3.467
    1MOL    C06   81   0.957   0.707   3.539
    1MOL    C07   82   1.037   0.792   3.309
    1MOL    C08   83   0.894   0.914   3.162
    1MOL    H09   84   0.713   0.950   3.239
    1MOL    C0A   85   0.641   0.762   3.718
    1MOL    C0B   86   0.863   0.699   3.642
    1MOL    H0C   87   1.045   0.650   3.553
    1MOL    H0D   88   1.132   0.744   3.328
    1MOL    C0E   89   1.017   0.851   3.181
    1MOL    C0F   90   0.876   0.969   3.032
    1MOL    C0G   91   0.665   0.706   3.842
    1MOL    H0H   92   0.550   0.823   3.701
    1MOL    C0I   93   0.882   0.630   3.763
    1MOL    C0J   94   1.105   0.844   3.073
    1MOL    C0K   95   0.963   0.969   2.929
    1MOL    H0M   96   0.791   1.027   3.003
    1MOL    C0N   97   0.787   0.638   3.863
    1MOL    H0O   98   0.581   0.695   3.911
    1MOL    H0P   99   0.966   0.569   3.782
    1MOL    H0Q  100   1.197   0.789   3.086
    1MOL    C0R  101   1.088   0.900   2.949
    1MOL    C0S  102   0.937   1.022   2.800
    1MOL    H0T  103   0.809   0.588   3.958
    1MOL    C0U  104   1.179   0.899   2.844
    1MOL    C0V  105   1.035   1.019   2.697
    1MOL    H0W  106   0.840   1.070   2.776
    1MOL    C0X  107   1.157   0.954   2.718
    1MOL    H0Y  108   1.271   0.839   2.859
    1MOL    H0Z  109   1.011   1.054   2.599
    1MOL    H10  110   1.238   0.930   2.646
    1MOL    C00  112   0.920   2.056   1.995
    1MOL    C01  113   0.822   2.051   2.099
    1MOL    C02  114   1.044   2.000   2.025
    1MOL    C03  115   0.907   2.109   1.862
    1MOL    C04  116   0.828   1.984   2.220
    1MOL    H05  117   0.736   2.096   2.068
    1MOL    C06  118   1.053   1.934   2.147
    1MOL    C07  119   1.141   2.009   1.923
    1MOL    C08  120   1.005   2.121   1.765
    1MOL    H09  121   0.817   2.157   1.840
    1MOL    C0A  122   0.724   1.967   2.312
    1MOL    C0B  123   0.953   1.917   2.247
    1MOL    H0C  124   1.144   1.876   2.155
    1MOL    H0D  125   1.229   1.954   1.943
    1MOL    C0E  126   1.126   2.062   1.790
    1MOL    C0F  127   0.993   2.181   1.644
    1MOL    C0G  128   0.737   1.886   2.429
    1MOL    H0H  129   0.624   2.017   2.303
    1MOL    C0I  130   0.970   1.841   2.369
    1MOL    C0J  131   1.219   2.062   1.685
    1MOL    C0K  132   1.094   2.193   1.542
    1MOL    H0M  133   0.897   2.234   1.623
    1MOL    C0N  134   0.863   1.829   2.462
    1MOL    H0O  135   0.654   1.882   2.499
    1MOL    H0P  136   1.066   1.793   2.384
    1MOL    H0Q  137   1.312   2.013   1.701
    1MOL    C0R  138   1.214   2.123   1.563
    1MOL    C0S  139   1.081   2.272   1.425
    1MOL    H0T  140   0.880   1.777   2.559
    1MOL    C0U  141   1.309   2.118   1.461
    1MOL    C0V  142   1.181   2.270   1.327
    1MOL    H0W  143   0.995   2.334   1.418
    1MOL    C0X  144   1.285   2.182   1.334
    1MOL    H0Y  145   1.406   2.072   1.478
    1MOL    H0Z  146   1.178   2.330   1.240
    1MOL    H10  147   1.363   2.184   1.262
    1MOL    C00  149   0.940   0.071   3.218
    1MOL    C01  150   1.033   0.069   3.118
    1MOL    C02  151   0.823   0.137   3.197
    1MOL    C03  152   0.953   0.001   3.341
    1MOL    C04  153   1.025   0.135   2.995
    1MOL    H05  154   1.122   0.014   3.143
    1MOL    C06  155   0.813   0.211   3.076
    1MOL    C07  156   0.728   0.130   3.299
    1MOL    C08  157   0.856  -0.013   3.444
    1MOL    H09  158   1.035  -0.070   3.349
    1MOL    C0A  159   1.124   0.150   2.900
    1MOL    C0B  160   0.907   0.211   2.969
    1MOL    H0C  161   0.716   0.257   3.045
    1MOL    H0D  162   0.639   0.186   3.294
    1MOL    C0E  163   0.734   0.053   3.420
    1MOL    C0F  164   0.866  -0.084   3.563
    1MOL    C0G  165   1.112   0.210   2.778
    1MOL    H0H  166   1.218   0.117   2.932
    1MOL    C0I  167   0.891   0.277   2.843
    1MOL    C0J  168   0.637   0.043   3.514
    1MOL    C0K  169   0.765  -0.099   3.661
    1MOL    H0M  170   0.964  -0.129   3.577
    1MOL    C0N  171   0.987   0.267   2.741
    1MOL    H0O  172   1.202   0.231   2.712
    1MOL    H0P  173   0.797   0.333   2.835
    1MOL    H0Q  174   0.549   0.096   3.492
    1MOL    C0R  175   0.644  -0.028   3.637
    1MOL    C0S  176   0.771  -0.170   3.779
    1MOL    H0T  177   0.974   0.311   2.642
    1MOL    C0U  178   0.543  -0.028   3.733
    1MOL    C0V  179   0.676  -0.161   3.881
    1MOL    H0W  180   0.859  -0.224   3.805
    1MOL    C0X  181   0.558  -0.090   3.857
    1MOL    H0Y  182   0.448   0.019   3.707
    1MOL    H0Z  183   0.701  -0.208   3.969
    1MOL    H10  184   0.476  -0.083   3.931
    1MOL    C00  186   0.827   1.292   1.995
    1MOL    C01  187   0.719   1.281   2.089
    1MOL    C02  188   0.961   1.236   2.026
    1MOL    C03  189   0.813   1.353   1.868
    1MOL    C04  190   0.742   1.224   2.214
    1MOL    H05  191   0.617   1.317   2.063
    1MOL    C06  192   0.976   1.175   2.152
    1MOL    C07  193   1.061   1.237   1.931
    1MOL    C08  194   0.914   1.360   1.772
    1MOL    H09  195   0.712   1.395   1.847
    1MOL    C0A  196   0.641   1.210   2.314
    1MOL    C0B  197   0.872   1.166   2.241
    1MOL    H0C  198   1.070   1.124   2.172
    1MOL    H0D  199   1.154   1.185   1.958
    1MOL    C0E  200   1.041   1.298   1.803
    1MOL    C0F  201   0.901   1.426   1.649
    1MOL    C0G  202   0.664   1.147   2.431
    1MOL    H0H  203   0.544   1.267   2.306
    1MOL    C0I  204   0.886   1.085   2.358
    1MOL    C0J  205   1.146   1.296   1.713
    1MOL    C0K  206   1.005   1.423   1.555
    1MOL    H0M  207   0.808   1.475   1.627
    1MOL    C0N  208   0.787   1.074   2.447
    1MOL    H0O  209   0.589   1.133   2.509
    1MOL    H0P  210   0.974   1.027   2.364
    1MOL    H0Q  211   1.242   1.265   1.740
    1MOL    C0R  212   1.132   1.360   1.586
    1MOL    C0S  213   0.982   1.472   1.421
    1MOL    H0T  214   0.797   1.008   2.535
    1MOL    C0U  215   1.234   1.359   1.492
    1MOL    C0V  216   1.087   1.472   1.334
    1MOL    H0W  217   0.888   1.518   1.387
    1MOL    C0X  218   1.208   1.415   1.372
    1MOL    H0Y  219   1.330   1.307   1.508
    1MOL    H0Z  220   1.073   1.507   1.233
    1MOL    H10  221   1.290   1.417   1.294
    1MOL    C00  223   1.079   1.604   3.193
    1MOL    C01  224   1.165   1.604   3.089
    1MOL    C02  225   0.966   1.680   3.168
    1MOL    C03  226   1.093   1.547   3.322
    1MOL    C04  227   1.161   1.667   2.965
    1MOL    H05  228   1.241   1.534   3.101
    1MOL    C06  229   0.950   1.752   3.051
    1MOL    C07  230   0.869   1.681   3.272
    1MOL    C08  231   0.991   1.542   3.419
    1MOL    H09  232   1.190   1.501   3.330
    1MOL    C0A  233   1.250   1.655   2.859
    1MOL    C0B  234   1.047   1.753   2.945
    1MOL    H0C  235   0.863   1.810   3.021
    1MOL    H0D  236   0.785   1.745   3.254
    1MOL    C0E  237   0.874   1.614   3.396
    1MOL    C0F  238   0.993   1.465   3.539
    1MOL    C0G  239   1.245   1.726   2.743
    1MOL    H0H  240   1.340   1.593   2.879
    1MOL    C0I  241   1.040   1.831   2.826
    1MOL    C0J  242   0.776   1.607   3.490
    1MOL    C0K  243   0.899   1.468   3.645
    1MOL    H0M  244   1.084   1.407   3.551
    1MOL    C0N  245   1.134   1.817   2.726
    1MOL    H0O  246   1.323   1.712   2.676
    1MOL    H0P  247   0.962   1.902   2.806
    1MOL    H0Q  248   0.681   1.661   3.471
    1MOL    C0R  249   0.782   1.542   3.617
    1MOL    C0S  250   0.905   1.401   3.767
    1MOL    H0T  251   1.144   1.878   2.638
    1MOL    C0U  252   0.674   1.541   3.708
    1MOL    C0V  253   0.810   1.426   3.872
    1MOL    H0W  254   0.985   1.348   3.802
    1MOL    C0X  255   0.691   1.477   3.834
    1MOL    H0Y  256   0.580   1.584   3.676
    1MOL    H0Z  257   0.824   1.380   3.962
    1MOL    H10  258   0.598   1.468   3.896
    1MOL    C00  260   0.720   0.160   0.576
    1MOL    C01  261   0.628   0.153   0.681
    1MOL    C02  262   0.841   0.097   0.592
    1MOL    C03  263   0.695   0.230   0.455
    1MOL    C04  264   0.643   0.094   0.805
    1MOL    H05  265   0.537   0.205   0.667
    1MOL    C06  266   0.860   0.030   0.715
    1MOL    C07  267   0.929   0.109   0.481
    1MOL    C08  268   0.785   0.238   0.349
    1MOL    H09  269   0.599   0.280   0.450
    1MOL    C0A  270   0.548   0.085   0.912
    1MOL    C0B  271   0.762   0.023   0.824
    1MOL    H0C  272   0.950  -0.020   0.731
    1MOL    H0D  273   1.030   0.072   0.505
    1MOL    C0E  274   0.909   0.178   0.365
    1MOL    C0F  275   0.759   0.300   0.220
    1MOL    C0G  276   0.581   0.022   1.033
    1MOL    H0H  277   0.447   0.118   0.892
    1MOL    C0I  278   0.790  -0.033   0.949
    1MOL    C0J  279   0.998   0.196   0.259
    1MOL    C0K  280   0.842   0.311   0.112
    1MOL    H0M  281   0.659   0.342   0.210
    1MOL    C0N  282   0.709  -0.034   1.057
    1MOL    H0O  283   0.504   0.014   1.108
    1MOL    H0P  284   0.888  -0.076   0.959
    1MOL    H0Q  285   1.091   0.152   0.276
    1MOL    C0R  286   0.970   0.257   0.135
    1MOL    C0S  287   0.809   0.367  -0.011
    1MOL    H0T  288   0.727  -0.093   1.147
    1MOL    C0U  289   1.068   0.288   0.034
    1MOL    C0V  290   0.902   0.377  -0.116
    1MOL    H0W  291   0.708   0.400  -0.024
    1MOL    C0X  292   1.035   0.344  -0.094
    1MOL    H0Y  293   1.170   0.258   0.046
    1MOL    H0Z  294   0.868   0.430  -0.206
    1MOL    H10  295   1.109   0.368  -0.167
    1MOL    C00  297   1.055   1.720   0.353
    1MOL    C01  298   1.151   1.728   0.252
    1MOL    C02  299   0.935   1.787   0.328
    1MOL    C03  300   1.070   1.659   0.474
    1MOL    C04  301   1.141   1.793   0.128
    1MOL    H05  302   1.249   1.680   0.267
    1MOL    C06  303   0.924   1.848   0.202
    1MOL    C07  304   0.841   1.780   0.436
    1MOL    C08  305   0.980   1.656   0.583
    1MOL    H09  306   1.161   1.614   0.497
    1MOL    C0A  307   1.244   1.804   0.028
    1MOL    C0B  308   1.017   1.856   0.097
    1MOL    H0C  309   0.825   1.896   0.191
    1MOL    H0D  310   0.748   1.826   0.405
    1MOL    C0E  311   0.861   1.719   0.563
    1MOL    C0F  312   1.000   1.594   0.714
    1MOL    C0G  313   1.230   1.868  -0.092
    1MOL    H0H  314   1.341   1.766   0.052
    1MOL    C0I  315   1.004   1.916  -0.028
    1MOL    C0J  316   0.764   1.708   0.668
    1MOL    C0K  317   0.908   1.579   0.820
    1MOL    H0M  318   1.100   1.553   0.717
    1MOL    C0N  319   1.108   1.930  -0.124
    1MOL    H0O  320   1.314   1.882  -0.153
    1MOL    H0P  321   0.914   1.971  -0.037
    1MOL    H0Q  322   0.669   1.760   0.652
    1MOL    C0R  323   0.786   1.638   0.791
    1MOL    C0S  324   0.933   1.516   0.946
    1MOL    H0T  325   1.089   1.994  -0.211
    1MOL    C0U  326   0.682   1.629   0.889
    1MOL    C0V  327   0.831   1.510   1.043
    1MOL    H0W  328   1.031   1.468   0.965
    1MOL    C0X  329   0.707   1.580   1.018
    1MOL    H0Y  330   0.596   1.677   0.857
    1MOL    H0Z  331   0.857   1.463   1.133
    1MOL    H10  332   0.632   1.599   1.078
    1MOL    C00  334   1.096   0.394   3.380
    1MOL    C01  335   0.996   0.334   3.458
    1MOL    C02  336   1.214   0.431   3.444
    1MOL    C03  337   1.085   0.412   3.240
    1MOL    C04  338   1.002   0.316   3.598
    1MOL    H05  339   0.907   0.294   3.416
    1MOL    C06  340   1.222   0.412   3.586
    1MOL    C07  341   1.309   0.495   3.357
    1MOL    C08  342   1.186   0.469   3.161
    1MOL    H09  343   0.990   0.387   3.188
    1MOL    C0A  344   0.901   0.275   3.684
    1MOL    C0B  345   1.121   0.358   3.663
    1MOL    H0C  346   1.314   0.429   3.638
    1MOL    H0D  347   1.392   0.542   3.407
    1MOL    C0E  348   1.305   0.507   3.221
    1MOL    C0F  349   1.176   0.483   3.019
    1MOL    C0G  350   0.902   0.278   3.825
    1MOL    H0H  351   0.801   0.238   3.647
    1MOL    C0I  352   1.130   0.359   3.804
    1MOL    C0J  353   1.408   0.546   3.132
    1MOL    C0K  354   1.270   0.535   2.934
    1MOL    H0M  355   1.084   0.437   2.976
    1MOL    C0N  356   1.023   0.324   3.882
    1MOL    H0O  357   0.817   0.237   3.880
    1MOL    H0P  358   1.223   0.395   3.841
    1MOL    H0Q  359   1.508   0.575   3.167
    1MOL    C0R  360   1.397   0.567   2.991
    1MOL    C0S  361   1.259   0.551   2.793
    1MOL    H0T  362   1.030   0.331   3.987
    1MOL    C0U  363   1.500   0.610   2.901
    1MOL    C0V  364   1.360   0.596   2.705
    1MOL    H0W  365   1.157   0.530   2.760
    1MOL    C0X  366   1.487   0.621   2.764
    1MOL    H0Y  367   1.596   0.634   2.940
    1MOL    H0Z  368   1.332   0.599   2.603
    1MOL    H10  369   1.560   0.654   2.693
    1MOL    C00  371   1.059   0.509   0.553
    1MOL    C01  372   0.965   0.458   0.651
    1MOL    C02  373   1.177   0.560   0.605
    1MOL    C03  374   1.044   0.512   0.415
    1MOL    C04  375   0.986   0.435   0.787
    1MOL    H05  376   0.872   0.421   0.613
    1MOL    C06  377   1.196   0.546   0.745
    1MOL    C07  378   1.268   0.621   0.518
    1MOL    C08  379   1.133   0.574   0.326
    1MOL    H09  380   0.947   0.479   0.385
    1MOL    C0A  381   0.891   0.376   0.875
    1MOL    C0B  382   1.107   0.484   0.838
    1MOL    H0C  383   1.290   0.589   0.788
    1MOL    H0D  384   1.359   0.656   0.566
    1MOL    C0E  385   1.250   0.629   0.382
    1MOL    C0F  386   1.123   0.583   0.185
    1MOL    C0G  387   0.919   0.355   1.010
    1MOL    H0H  388   0.787   0.354   0.839
    1MOL    C0I  389   1.134   0.463   0.972
    1MOL    C0J  390   1.348   0.682   0.287
    1MOL    C0K  391   1.208   0.646   0.099
    1MOL    H0M  392   1.039   0.538   0.133
    1MOL    C0N  393   1.045   0.398   1.061
    1MOL    H0O  394   0.850   0.321   1.089
    1MOL    H0P  395   1.226   0.496   1.013
    1MOL    H0Q  396   1.436   0.729   0.318
    1MOL    C0R  397   1.332   0.692   0.153
    1MOL    C0S  398   1.201   0.651  -0.040
    1MOL    H0T  399   1.054   0.403   1.168
    1MOL    C0U  400   1.427   0.746   0.064
    1MOL    C0V  401   1.285   0.714  -0.124
    1MOL    H0W  402   1.112   0.599  -0.092
    1MOL    C0X  403   1.402   0.765  -0.071
    1MOL    H0Y  404   1.529   0.781   0.098
    1MOL    H0Z  405   1.254   0.710  -0.227
    1MOL    H10  406   1.488   0.807  -0.131
    1MOL    C00  408   1.343   1.268   3.219
    1MOL    C01  409   1.438   1.328   3.132
    1MOL    C02  410   1.230   1.230   3.166
    1MOL    C03  411   1.358   1.247   3.356
    1MOL    C04  412   1.432   1.340   2.997
    1MOL    H05  413   1.523   1.372   3.175
    1MOL    C06  414   1.220   1.247   3.021
    1MOL    C07  415   1.131   1.179   3.250
    1MOL    C08  416   1.268   1.187   3.443
    1MOL    H09  417   1.443   1.277   3.416
    1MOL    C0A  418   1.534   1.389   2.913
    1MOL    C0B  419   1.318   1.287   2.935
    1MOL    H0C  420   1.125   1.214   2.977
    1MOL    H0D  421   1.042   1.146   3.198
    1MOL    C0E  422   1.148   1.152   3.390
    1MOL    C0F  423   1.278   1.177   3.585
    1MOL    C0G  424   1.522   1.384   2.777
    1MOL    H0H  425   1.624   1.434   2.949
    1MOL    C0I  426   1.312   1.279   2.797
    1MOL    C0J  427   1.046   1.106   3.480
    1MOL    C0K  428   1.181   1.140   3.677
    1MOL    H0M  429   1.378   1.200   3.623
    1MOL    C0N  430   1.409   1.333   2.709
    1MOL    H0O  431   1.595   1.426   2.711
    1MOL    H0P  432   1.232   1.236   2.743
    1MOL    H0Q  433   0.955   1.076   3.437
    1MOL    C0R  434   1.063   1.090   3.618
    1MOL    C0S  435   1.190   1.129   3.822
    1MOL    H0T  436   1.388   1.345   2.600
    1MOL    C0U  437   0.969   1.036   3.709
    1MOL    C0V  438   1.089   1.087   3.906
    1MOL    H0W  439   1.283   1.178   3.863
    1MOL    C0X  440   0.976   1.036   3.849
    1MOL    H0Y  441   0.882   1.000   3.652
    1MOL    H0Z  442   1.107   1.087   4.008
    1MOL    H10  443   0.893   0.977   3.897
    1MOL    C00  445   1.326   0.972   1.805
    1MOL    C01  446   1.424   1.029   1.727
    1MOL    C02  447   1.204   0.928   1.743
    1MOL    C03  448   1.347   0.954   1.947
    1MOL    C04  449   1.403   1.040   1.585
    1MOL    H05  450   1.523   1.053   1.768
    1MOL    C06  451   1.182   0.935   1.607
    1MOL    C07  452   1.104   0.863   1.819
    1MOL    C08  453   1.242   0.891   2.021
    1MOL    H09  454   1.434   0.990   2.004
    1MOL    C0A  455   1.505   1.091   1.504
    1MOL    C0B  456   1.284   0.992   1.520
    1MOL    H0C  457   1.087   0.896   1.572
    1MOL    H0D  458   1.011   0.831   1.775
    1MOL    C0E  459   1.124   0.841   1.955
    1MOL    C0F  460   1.253   0.865   2.162
    1MOL    C0G  461   1.490   1.091   1.369
    1MOL    H0H  462   1.602   1.121   1.545
    1MOL    C0I  463   1.266   0.997   1.380
    1MOL    C0J  464   1.026   0.773   2.032
    1MOL    C0K  465   1.157   0.805   2.236
    1MOL    H0M  466   1.348   0.915   2.211
    1MOL    C0N  467   1.371   1.043   1.303
    1MOL    H0O  468   1.575   1.133   1.313
    1MOL    H0P  469   1.171   0.965   1.330
    1MOL    H0Q  470   0.940   0.738   1.985
    1MOL    C0R  471   1.037   0.757   2.171
    1MOL    C0S  472   1.177   0.786   2.381
    1MOL    H0T  473   1.365   1.057   1.192
    1MOL    C0U  474   0.934   0.689   2.260
    1MOL    C0V  475   1.077   0.720   2.454
    1MOL    H0W  476   1.268   0.813   2.427
    1MOL    C0X  477   0.956   0.666   2.392
    1MOL    H0Y  478   0.840   0.646   2.224
    1MOL    H0Z  479   1.094   0.708   2.556
    1MOL    H10  480   0.884   0.627   2.465
    1MOL    C00  482   1.058   0.071   1.979
    1MOL    C01  483   0.959   0.010   2.065
    1MOL    C02  484   1.170   0.119   2.042
    1MOL    C03  485   1.049   0.074   1.839
    1MOL    C04  486   0.961   0.002   2.206
    1MOL    H05  487   0.875  -0.037   2.014
    1MOL    C06  488   1.177   0.109   2.179
    1MOL    C07  489   1.266   0.167   1.954
    1MOL    C08  490   1.143   0.128   1.757
    1MOL    H09  491   0.970   0.038   1.789
    1MOL    C0A  492   0.873  -0.062   2.293
    1MOL    C0B  493   1.082   0.050   2.264
    1MOL    H0C  494   1.275   0.123   2.221
    1MOL    H0D  495   1.343   0.221   1.995
    1MOL    C0E  496   1.260   0.176   1.812
    1MOL    C0F  497   1.138   0.137   1.613
    1MOL    C0G  498   0.883  -0.069   2.437
    1MOL    H0H  499   0.788  -0.097   2.236
    1MOL    C0I  500   1.096   0.043   2.405
    1MOL    C0J  501   1.356   0.235   1.724
    1MOL    C0K  502   1.230   0.182   1.525
    1MOL    H0M  503   1.040   0.104   1.577
    1MOL    C0N  504   1.003  -0.021   2.488
    1MOL    H0O  505   0.802  -0.124   2.489
    1MOL    H0P  506   1.192   0.081   2.427
    1MOL    H0Q  507   1.448   0.264   1.768
    1MOL    C0R  508   1.346   0.235   1.583
    1MOL    C0S  509   1.212   0.193   1.383
    1MOL    H0T  510   1.039  -0.015   2.586
    1MOL    C0U  511   1.442   0.290   1.496
    1MOL    C0V  512   1.316   0.228   1.304
    1MOL    H0W  513   1.123   0.150   1.335
    1MOL    C0X  514   1.428   0.286   1.356
    1MOL    H0Y  515   1.523   0.343   1.548
    1MOL    H0Z  516   1.295   0.222   1.196
    1MOL    H10  517   1.499   0.338   1.292
    1MOL    C00  519   1.389   1.722   1.811
    1MOL    C01  520   1.488   1.790   1.733
    1MOL    C02  521   1.277   1.679   1.744
    1MOL    C03  522   1.398   1.716   1.949
    1MOL    C04  523   1.485   1.803   1.593
    1MOL    H05  524   1.562   1.835   1.785
    1MOL    C06  525   1.276   1.690   1.606
    1MOL    C07  526   1.182   1.620   1.830
    1MOL    C08  527   1.312   1.648   2.036
    1MOL    H09  528   1.494   1.754   1.981
    1MOL    C0A  529   1.590   1.868   1.518
    1MOL    C0B  530   1.375   1.752   1.526
    1MOL    H0C  531   1.192   1.646   1.563
    1MOL    H0D  532   1.087   1.586   1.795
    1MOL    C0E  533   1.198   1.603   1.971
    1MOL    C0F  534   1.325   1.643   2.174
    1MOL    C0G  535   1.578   1.888   1.378
    1MOL    H0H  536   1.678   1.912   1.568
    1MOL    C0I  537   1.379   1.753   1.385
    1MOL    C0J  538   1.105   1.544   2.057
    1MOL    C0K  539   1.231   1.591   2.259
    1MOL    H0M  540   1.418   1.695   2.214
    1MOL    C0N  541   1.476   1.825   1.314
    1MOL    H0O  542   1.649   1.947   1.309
    1MOL    H0P  543   1.306   1.701   1.325
    1MOL    H0Q  544   1.018   1.508   2.003
    1MOL    C0R  545   1.121   1.535   2.201
    1MOL    C0S  546   1.239   1.584   2.402
    1MOL    H0T  547   1.462   1.825   1.212
    1MOL    C0U  548   1.021   1.477   2.280
    1MOL    C0V  549   1.144   1.527   2.484
    1MOL    H0W  550   1.326   1.622   2.451
    1MOL    C0X  551   1.028   1.475   2.422
    1MOL    H0Y  552   0.932   1.444   2.234
    1MOL    H0Z  553   1.169   1.510   2.590
    1MOL    H10  554   0.956   1.422   2.489
    1MOL    C00  556   1.325   1.387   0.387
    1MOL    C01  557   1.416   1.441   0.300
    1MOL    C02  558   1.201   1.353   0.331
    1MOL    C03  559   1.346   1.360   0.521
    1MOL    C04  560   1.402   1.468   0.160
    1MOL    H05  561   1.513   1.465   0.341
    1MOL    C06  562   1.189   1.367   0.191
    1MOL    C07  563   1.107   1.291   0.414
    1MOL    C08  564   1.251   1.309   0.610
    1MOL    H09  565   1.438   1.385   0.569
    1MOL    C0A  566   1.495   1.527   0.073
    1MOL    C0B  567   1.284   1.428   0.106
    1MOL    H0C  568   1.097   1.327   0.148
    1MOL    H0D  569   1.007   1.266   0.380
    1MOL    C0E  570   1.128   1.272   0.552
    1MOL    C0F  571   1.259   1.295   0.748
    1MOL    C0G  572   1.477   1.541  -0.062
    1MOL    H0H  573   1.584   1.558   0.115
    1MOL    C0I  574   1.263   1.442  -0.034
    1MOL    C0J  575   1.031   1.216   0.636
    1MOL    C0K  576   1.162   1.246   0.838
    1MOL    H0M  577   1.347   1.326   0.792
    1MOL    C0N  578   1.355   1.505  -0.122
    1MOL    H0O  579   1.551   1.601  -0.118
    1MOL    H0P  580   1.178   1.410  -0.090
    1MOL    H0Q  581   0.937   1.197   0.591
    1MOL    C0R  582   1.040   1.196   0.777
    1MOL    C0S  583   1.178   1.242   0.979
    1MOL    H0T  584   1.351   1.520  -0.227
    1MOL    C0U  585   0.949   1.134   0.871
    1MOL    C0V  586   1.083   1.187   1.064
    1MOL    H0W  587   1.273   1.264   1.024
    1MOL    C0X  588   0.965   1.128   1.012
    1MOL    H0Y  589   0.855   1.095   0.839
    1MOL    H0Z  590   1.109   1.185   1.169
    1MOL    H10  591   0.894   1.078   1.078
    1MOL    C00  593   1.422   2.029   3.223
    1MOL    C01  594   1.529   2.074   3.137
    1MOL    C02  595   1.302   2.008   3.169
    1MOL    C03  596   1.436   2.008   3.364
    1MOL    C04  597   1.514   2.106   2.997
    1MOL    H05  598   1.622   2.089   3.188
    1MOL    C06  599   1.291   2.034   3.032
    1MOL    C07  600   1.201   1.962   3.264
    1MOL    C08  601   1.337   1.950   3.451
    1MOL    H09  602   1.527   2.032   3.411
    1MOL    C0A  603   1.612   2.169   2.913
    1MOL    C0B  604   1.386   2.089   2.943
    1MOL    H0C  605   1.202   1.997   2.980
    1MOL    H0D  606   1.106   1.954   3.216
    1MOL    C0E  607   1.210   1.933   3.398
    1MOL    C0F  608   1.346   1.911   3.589
    1MOL    C0G  609   1.586   2.195   2.776
    1MOL    H0H  610   1.705   2.198   2.951
    1MOL    C0I  611   1.359   2.121   2.809
    1MOL    C0J  612   1.115   1.872   3.483
    1MOL    C0K  613   1.245   1.870   3.678
    1MOL    H0M  614   1.445   1.914   3.633
    1MOL    C0N  615   1.461   2.167   2.723
    1MOL    H0O  616   1.664   2.233   2.711
    1MOL    H0P  617   1.263   2.094   2.766
    1MOL    H0Q  618   1.020   1.842   3.434
    1MOL    C0R  619   1.119   1.848   3.621
    1MOL    C0S  620   1.251   1.849   3.816
    1MOL    H0T  621   1.435   2.180   2.620
    1MOL    C0U  622   1.010   1.791   3.692
    1MOL    C0V  623   1.143   1.797   3.892
    1MOL    H0W  624   1.349   1.863   3.864
    1MOL    C0X  625   1.030   1.760   3.828
    1MOL    H0Y  626   0.911   1.767   3.647
    1MOL    H0Z  627   1.151   1.780   3.989
    1MOL    H10  628   0.948   1.709   3.879
    1MOL    C00  630   1.219   2.065   0.565
    1MOL    C01  631   1.133   1.995   0.654
    1MOL    C02  632   1.336   2.112   0.615
    1MOL    C03  633   1.205   2.075   0.424
    1MOL    C04  634   1.151   1.980   0.792
    1MOL    H05  635   1.047   1.953   0.602
    1MOL    C06  636   1.350   2.108   0.757
    1MOL    C07  637   1.427   2.165   0.527
    1MOL    C08  638   1.299   2.125   0.328
    1MOL    H09  639   1.102   2.057   0.389
    1MOL    C0A  640   1.062   1.913   0.879
    1MOL    C0B  641   1.263   2.043   0.848
    1MOL    H0C  642   1.439   2.156   0.793
    1MOL    H0D  643   1.518   2.199   0.564
    1MOL    C0E  644   1.415   2.173   0.386
    1MOL    C0F  645   1.281   2.149   0.192
    1MOL    C0G  646   1.078   1.903   1.015
    1MOL    H0H  647   0.975   1.863   0.833
    1MOL    C0I  648   1.281   2.033   0.989
    1MOL    C0J  649   1.510   2.234   0.296
    1MOL    C0K  650   1.369   2.207   0.101
    1MOL    H0M  651   1.183   2.127   0.147
    1MOL    C0N  652   1.197   1.955   1.074
    1MOL    H0O  653   1.001   1.857   1.080
    1MOL    H0P  654   1.363   2.084   1.033
    1MOL    H0Q  655   1.601   2.278   0.322
    1MOL    C0R  656   1.492   2.257   0.157
    1MOL    C0S  657   1.338   2.237  -0.037
    1MOL    H0T  658   1.226   1.954   1.181
    1MOL    C0U  659   1.586   2.310   0.069
    1MOL    C0V  660   1.437   2.292  -0.120
    1MOL    H0W  661   1.247   2.203  -0.079
    1MOL    C0X  662   1.560   2.335  -0.068
    1MOL    H0Y  663   1.677   2.346   0.114
    1MOL    H0Z  664   1.420   2.303  -0.223
    1MOL    H10  665   1.640   2.378  -0.134
    1MOL    C00  667   0.438   0.489   0.587
    1MOL    C01  668   0.347   0.432   0.682
    1MOL    C02  669   0.554   0.545   0.640
    1MOL    C03  670   0.419   0.502   0.451
    1MOL    C04  671   0.366   0.424   0.816
    1MOL    H05  672   0.254   0.398   0.641
    1MOL    C06  673   0.578   0.528   0.780
    1MOL    C07  674   0.639   0.616   0.553
    1MOL    C08  675   0.511   0.560   0.358
    1MOL    H09  676   0.327   0.475   0.406
    1MOL    C0A  677   0.276   0.365   0.903
    1MOL    C0B  678   0.483   0.476   0.874
    1MOL    H0C  679   0.664   0.559   0.837
    1MOL    H0D  680   0.730   0.659   0.600
    1MOL    C0E  681   0.626   0.619   0.413
    1MOL    C0F  682   0.489   0.572   0.217
    1MOL    C0G  683   0.301   0.357   1.043
    1MOL    H0H  684   0.177   0.330   0.865
    1MOL    C0I  685   0.507   0.459   1.009
    1MOL    C0J  686   0.715   0.681   0.318
    1MOL    C0K  687   0.569   0.643   0.129
    1MOL    H0M  688   0.399   0.529   0.180
    1MOL    C0N  689   0.419   0.403   1.102
    1MOL    H0O  690   0.234   0.292   1.091
    1MOL    H0P  691   0.594   0.500   1.054
    1MOL    H0Q  692   0.801   0.721   0.352
    1MOL    C0R  693   0.688   0.698   0.181
    1MOL    C0S  694   0.539   0.661  -0.003
    1MOL    H0T  695   0.441   0.387   1.206
    1MOL    C0U  696   0.777   0.759   0.086
    1MOL    C0V  697   0.617   0.733  -0.101
    1MOL    H0W  698   0.443   0.623  -0.032
    1MOL    C0X  699   0.740   0.775  -0.048
    1MOL    H0Y  700   0.869   0.801   0.123
    1MOL    H0Z  701   0.588   0.738  -0.206
    1MOL    H10  702   0.811   0.825  -0.120
    1MOL    C00  704   0.503   1.286   0.551
    1MOL    C01  705   0.408   1.232   0.641
    1MOL    C02  706   0.618   1.342   0.607
    1MOL    C03  707   0.488   1.300   0.410
    1MOL    C04  708   0.421   1.217   0.785
    1MOL    H05  709   0.324   1.191   0.600
    1MOL    C06  710   0.620   1.334   0.749
    1MOL    C07  711   0.721   1.395   0.519
    1MOL    C08  712   0.586   1.357   0.323
    1MOL    H09  713   0.410   1.259   0.362
    1MOL    C0A  714   0.326   1.152   0.868
    1MOL    C0B  715   0.540   1.271   0.843
    1MOL    H0C  716   0.716   1.372   0.780
    1MOL    H0D  717   0.814   1.433   0.563
    1MOL    C0E  718   0.711   1.398   0.375
    1MOL    C0F  719   0.572   1.366   0.180
    1MOL    C0G  720   0.346   1.136   1.009
    1MOL    H0H  721   0.231   1.120   0.834
    1MOL    C0I  722   0.551   1.259   0.987
    1MOL    C0J  723   0.812   1.448   0.289
    1MOL    C0K  724   0.672   1.418   0.092
    1MOL    H0M  725   0.470   1.339   0.144
    1MOL    C0N  726   0.461   1.186   1.069
    1MOL    H0O  727   0.276   1.079   1.061
    1MOL    H0P  728   0.642   1.311   1.019
    1MOL    H0Q  729   0.898   1.492   0.327
    1MOL    C0R  730   0.795   1.465   0.149
    1MOL    C0S  731   0.660   1.421  -0.046
    1MOL    H0T  732   0.483   1.173   1.175
    1MOL    C0U  733   0.893   1.512   0.064
    1MOL    C0V  734   0.756   1.476  -0.130
    1MOL    H0W  735   0.564   1.380  -0.091
    1MOL    C0X  736   0.881   1.520  -0.079
    1MOL    H0Y  737   0.989   1.541   0.108
    1MOL    H0Z  738   0.739   1.479  -0.233
    1MOL    H10  739   0.963   1.555  -0.137
    1MOL    C00  741   0.591   2.045   0.567
    1MOL    C01  742   0.498   1.990   0.663
    1MOL    C02  743   0.717   2.085   0.616
    1MOL    C03  744   0.574   2.059   0.425
    1MOL    C04  745   0.519   1.975   0.805
    1MOL    H05  746   0.405   1.948   0.629
    1MOL    C06  747   0.726   2.079   0.757
    1MOL    C07  748   0.801   2.149   0.522
    1MOL    C08  749   0.664   2.115   0.333
    1MOL    H09  750   0.483   2.030   0.388
    1MOL    C0A  751   0.435   1.907   0.894
    1MOL    C0B  752   0.642   2.021   0.855
    1MOL    H0C  753   0.811   2.130   0.801
    1MOL    H0D  754   0.894   2.190   0.565
    1MOL    C0E  755   0.784   2.160   0.385
    1MOL    C0F  756   0.642   2.132   0.192
    1MOL    C0G  757   0.464   1.887   1.030
    1MOL    H0H  758   0.339   1.861   0.864
    1MOL    C0I  759   0.664   2.011   0.997
    1MOL    C0J  760   0.869   2.226   0.297
    1MOL    C0K  761   0.733   2.187   0.107
    1MOL    H0M  762   0.544   2.089   0.159
    1MOL    C0N  763   0.582   1.944   1.085
    1MOL    H0O  764   0.401   1.823   1.094
    1MOL    H0P  765   0.756   2.047   1.032
    1MOL    H0Q  766   0.956   2.274   0.333
    1MOL    C0R  767   0.857   2.237   0.160
    1MOL    C0S  768   0.716   2.200  -0.035
    1MOL    H0T  769   0.610   1.934   1.187
    1MOL    C0U  770   0.949   2.296   0.070
    1MOL    C0V  771   0.805   2.269  -0.123
    1MOL    H0W  772   0.616   2.165  -0.062
    1MOL    C0X  773   0.925   2.299  -0.064
    1MOL    H0Y  774   1.041   2.339   0.112
    1MOL    H0Z  775   0.777   2.270  -0.229
    1MOL    H10  776   1.012   2.347  -0.114
    1MOL    C00  778   0.492   0.840   1.983
    1MOL    C01  779   0.393   0.789   2.071
    1MOL    C02  780   0.612   0.884   2.036
    1MOL    C03  781   0.480   0.866   1.850
    1MOL    C04  782   0.401   0.765   2.213
    1MOL    H05  783   0.297   0.742   2.028
    1MOL    C06  784   0.625   0.856   2.176
    1MOL    C07  785   0.714   0.936   1.953
    1MOL    C08  786   0.575   0.916   1.760
    1MOL    H09  787   0.391   0.841   1.800
    1MOL    C0A  788   0.305   0.714   2.302
    1MOL    C0B  789   0.528   0.805   2.270
    1MOL    H0C  790   0.720   0.886   2.227
    1MOL    H0D  791   0.806   0.975   1.996
    1MOL    C0E  792   0.700   0.956   1.809
    1MOL    C0F  793   0.558   0.934   1.617
    1MOL    C0G  794   0.327   0.698   2.443
    1MOL    H0H  795   0.204   0.683   2.259
    1MOL    C0I  796   0.544   0.791   2.405
    1MOL    C0J  797   0.793   1.006   1.719
    1MOL    C0K  798   0.654   0.983   1.529
    1MOL    H0M  799   0.460   0.907   1.579
    1MOL    C0N  800   0.453   0.737   2.502
    1MOL    H0O  801   0.251   0.650   2.509
    1MOL    H0P  802   0.640   0.833   2.436
    1MOL    H0Q  803   0.875   1.034   1.778
    1MOL    C0R  804   0.783   1.019   1.580
    1MOL    C0S  805   0.642   0.996   1.386
    1MOL    H0T  806   0.484   0.724   2.602
    1MOL    C0U  807   0.878   1.065   1.497
    1MOL    C0V  808   0.738   1.050   1.300
    1MOL    H0W  809   0.547   0.969   1.352
    1MOL    C0X  810   0.866   1.082   1.357
    1MOL    H0Y  811   0.970   1.105   1.548
    1MOL    H0Z  812   0.717   1.067   1.197
    1MOL    H10  813   0.950   1.125   1.304
    1MOL    C00  815   0.534   1.144   3.385
    1MOL    C01  816   0.438   1.087   3.467
    1MOL    C02  817   0.650   1.198   3.443
    1MOL    C03  818   0.522   1.156   3.243
    1MOL    C04  819   0.445   1.080   3.605
    1MOL    H05  820   0.357   1.036   3.423
    1MOL    C06  821   0.660   1.182   3.583
    1MOL    C07  822   0.741   1.260   3.356
    1MOL    C08  823   0.607   1.226   3.155
    1MOL    H09  824   0.433   1.117   3.205
    1MOL    C0A  825   0.335   1.036   3.689
    1MOL    C0B  826   0.562   1.128   3.668
    1MOL    H0C  827   0.741   1.222   3.641
    1MOL    H0D  828   0.834   1.313   3.394
    1MOL    C0E  829   0.719   1.274   3.215
    1MOL    C0F  830   0.595   1.238   3.014
    1MOL    C0G  831   0.342   1.044   3.825
    1MOL    H0H  832   0.241   1.013   3.641
    1MOL    C0I  833   0.577   1.114   3.807
    1MOL    C0J  834   0.820   1.329   3.130
    1MOL    C0K  835   0.692   1.283   2.928
    1MOL    H0M  836   0.505   1.202   2.968
    1MOL    C0N  837   0.465   1.066   3.883
    1MOL    H0O  838   0.259   1.017   3.886
    1MOL    H0P  839   0.663   1.146   3.860
    1MOL    H0Q  840   0.915   1.367   3.167
    1MOL    C0R  841   0.812   1.326   2.989
    1MOL    C0S  842   0.691   1.274   2.784
    1MOL    H0T  843   0.470   1.063   3.992
    1MOL    C0U  844   0.907   1.389   2.905
    1MOL    C0V  845   0.796   1.328   2.703
    1MOL    H0W  846   0.601   1.233   2.741
    1MOL    C0X  847   0.910   1.390   2.766
    1MOL    H0Y  848   0.990   1.442   2.957
    1MOL    H0Z  849   0.794   1.327   2.598
    1MOL    H10  850   0.990   1.438   2.706
    1MOL    C00  852   1.508   1.597   3.378
    1MOL    C01  853   1.408   1.590   3.480
    1MOL    C02  854   1.622   1.524   3.405
    1MOL    C03  855   1.488   1.661   3.257
    1MOL    C04  856   1.415   1.531   3.604
    1MOL    H05  857   1.326   1.641   3.444
    1MOL    C06  858   1.626   1.456   3.530
    1MOL    C07  859   1.719   1.533   3.300
    1MOL    C08  860   1.583   1.670   3.149
    1MOL    H09  861   1.395   1.718   3.245
    1MOL    C0A  862   1.318   1.538   3.699
    1MOL    C0B  863   1.528   1.455   3.632
    1MOL    H0C  864   1.716   1.402   3.545
    1MOL    H0D  865   1.805   1.477   3.320
    1MOL    C0E  866   1.707   1.603   3.178
    1MOL    C0F  867   1.576   1.741   3.030
    1MOL    C0G  868   1.329   1.492   3.828
    1MOL    H0H  869   1.227   1.592   3.671
    1MOL    C0I  870   1.537   1.394   3.759
    1MOL    C0J  871   1.807   1.605   3.076
    1MOL    C0K  872   1.673   1.745   2.927
    1MOL    H0M  873   1.485   1.796   3.002
    1MOL    C0N  874   1.443   1.411   3.862
    1MOL    H0O  875   1.236   1.510   3.892
    1MOL    H0P  876   1.619   1.331   3.781
    1MOL    H0Q  877   1.898   1.545   3.098
    1MOL    C0R  878   1.793   1.671   2.953
    1MOL    C0S  879   1.656   1.809   2.802
    1MOL    H0T  880   1.459   1.368   3.958
    1MOL    C0U  881   1.881   1.664   2.843
    1MOL    C0V  882   1.757   1.808   2.706
    1MOL    H0W  883   1.574   1.871   2.772
    1MOL    C0X  884   1.869   1.732   2.719
    1MOL    H0Y  885   1.973   1.606   2.851
    1MOL    H0Z  886   1.748   1.863   2.615
    1MOL    H10  887   1.944   1.718   2.642
    1MOL    C00  889   0.771   1.735   1.824
    1MOL    C01  890   0.869   1.791   1.738
    1MOL    C02  891   0.660   1.684   1.763
    1MOL    C03  892   0.780   1.717   1.966
    1MOL    C04  893   0.864   1.794   1.602
    1MOL    H05  894   0.960   1.823   1.781
    1MOL    C06  895   0.643   1.705   1.624
    1MOL    C07  896   0.561   1.626   1.850
    1MOL    C08  897   0.684   1.657   2.051
    1MOL    H09  898   0.862   1.758   2.020
    1MOL    C0A  899   0.967   1.842   1.523
    1MOL    C0B  900   0.742   1.755   1.541
    1MOL    H0C  901   0.548   1.671   1.579
    1MOL    H0D  902   0.473   1.574   1.820
    1MOL    C0E  903   0.570   1.612   1.991
    1MOL    C0F  904   0.690   1.637   2.189
    1MOL    C0G  905   0.950   1.857   1.382
    1MOL    H0H  906   1.061   1.858   1.579
    1MOL    C0I  907   0.733   1.761   1.403
    1MOL    C0J  908   0.468   1.569   2.070
    1MOL    C0K  909   0.590   1.579   2.269
    1MOL    H0M  910   0.788   1.666   2.230
    1MOL    C0N  911   0.834   1.812   1.321
    1MOL    H0O  912   1.036   1.888   1.320
    1MOL    H0P  913   0.641   1.726   1.355
    1MOL    H0Q  914   0.387   1.539   2.005
    1MOL    C0R  915   0.470   1.546   2.204
    1MOL    C0S  916   0.595   1.565   2.415
    1MOL    H0T  917   0.820   1.806   1.209
    1MOL    C0U  918   0.363   1.491   2.281
    1MOL    C0V  919   0.493   1.500   2.488
    1MOL    H0W  920   0.681   1.593   2.466
    1MOL    C0X  921   0.376   1.469   2.419
    1MOL    H0Y  922   0.275   1.468   2.221
    1MOL    H0Z  923   0.497   1.462   2.593
    1MOL    H10  924   0.295   1.430   2.473
    1MOL    C00  926   1.452   0.831   3.381
    1MOL    C01  927   1.357   0.821   3.484
    1MOL    C02  928   1.576   0.773   3.411
    1MOL    C03  929   1.442   0.892   3.254
    1MOL    C04  930   1.368   0.754   3.614
    1MOL    H05  931   1.252   0.854   3.464
    1MOL    C06  932   1.583   0.701   3.534
    1MOL    C07  933   1.672   0.772   3.304
    1MOL    C08  934   1.539   0.896   3.148
    1MOL    H09  935   1.357   0.951   3.233
    1MOL    C0A  936   1.267   0.741   3.713
    1MOL    C0B  937   1.493   0.697   3.645
    1MOL    H0C  938   1.672   0.641   3.565
    1MOL    H0D  939   1.760   0.720   3.325
    1MOL    C0E  940   1.660   0.837   3.179
    1MOL    C0F  941   1.526   0.956   3.017
    1MOL    C0G  942   1.289   0.683   3.834
    1MOL    H0H  943   1.168   0.778   3.705
    1MOL    C0I  944   1.517   0.642   3.773
    1MOL    C0J  945   1.754   0.847   3.074
    1MOL    C0K  946   1.624   0.965   2.917
    1MOL    H0M  947   1.425   1.002   3.001
    1MOL    C0N  948   1.420   0.634   3.870
    1MOL    H0O  949   1.212   0.682   3.909
    1MOL    H0P  950   1.618   0.603   3.795
    1MOL    H0Q  951   1.847   0.794   3.102
    1MOL    C0R  952   1.747   0.904   2.951
    1MOL    C0S  953   1.620   1.030   2.795
    1MOL    H0T  954   1.439   0.600   3.971
    1MOL    C0U  955   1.848   0.910   2.849
    1MOL    C0V  956   1.715   1.033   2.695
    1MOL    H0W  957   1.525   1.078   2.786
    1MOL    C0X  958   1.835   0.974   2.728
    1MOL    H0Y  959   1.943   0.872   2.884
    1MOL    H0Z  960   1.708   1.084   2.598
    1MOL    H10  961   1.921   0.988   2.659
    1MOL    C00  963   1.759   2.062   1.799
    1MOL    C01  964   1.860   2.053   1.696
    1MOL    C02  965   1.640   2.123   1.765
    1MOL    C03  966   1.767   1.998   1.926
    1MOL    C04  967   1.855   2.117   1.571
    1MOL    H05  968   1.948   1.991   1.717
    1MOL    C06  969   1.645   2.200   1.644
    1MOL    C07  970   1.541   2.121   1.863
    1MOL    C08  971   1.663   1.992   2.020
    1MOL    H09  972   1.861   1.949   1.956
    1MOL    C0A  973   1.956   2.116   1.471
    1MOL    C0B  974   1.738   2.198   1.544
    1MOL    H0C  975   1.559   2.264   1.634
    1MOL    H0D  976   1.446   2.170   1.847
    1MOL    C0E  977   1.551   2.061   1.992
    1MOL    C0F  978   1.673   1.928   2.141
    1MOL    C0G  979   1.944   2.169   1.342
    1MOL    H0H  980   2.054   2.066   1.497
    1MOL    C0I  981   1.727   2.253   1.418
    1MOL    C0J  982   1.449   2.056   2.087
    1MOL    C0K  983   1.570   1.933   2.243
    1MOL    H0M  984   1.757   1.868   2.164
    1MOL    C0N  985   1.821   2.226   1.311
    1MOL    H0O  986   2.009   2.161   1.253
    1MOL    H0P  987   1.644   2.309   1.402
    1MOL    H0Q  988   1.360   2.115   2.064
    1MOL    C0R  989   1.455   1.997   2.213
    1MOL    C0S  990   1.586   1.875   2.371
    1MOL    H0T  991   1.808   2.261   1.212
    1MOL    C0U  992   1.359   2.009   2.311
    1MOL    C0V  993   1.493   1.891   2.472
    1MOL    H0W  994   1.680   1.817   2.378
    1MOL    C0X  995   1.376   1.957   2.440
    1MOL    H0Y  996   1.275   2.073   2.289
    1MOL    H0Z  997   1.518   1.847   2.569
    1MOL    H10  998   1.306   1.981   2.517
    1MOL    C00 1000   1.371   0.048   3.395
    1MOL    C01 1001   1.268   0.039   3.496
    1MOL    C02 1002   1.489  -0.009   3.422
    1MOL    C03 1003   1.355   0.119   3.278
    1MOL    C04 1004   1.281  -0.026   3.619
    1MOL    H05 1005   1.182   0.105   3.488
    1MOL    C06 1006   1.503  -0.075   3.548
    1MOL    C07 1007   1.593   0.003   3.324
    1MOL    C08 1008   1.460   0.136   3.181
    1MOL    H09 1009   1.260   0.169   3.263
    1MOL    C0A 1010   1.184  -0.024   3.724
    1MOL    C0B 1011   1.401  -0.092   3.642
    1MOL    H0C 1012   1.604  -0.112   3.582
    1MOL    H0D 1013   1.690  -0.043   3.345
    1MOL    C0E 1014   1.580   0.067   3.200
    1MOL    C0F 1015   1.449   0.208   3.060
    1MOL    C0G 1016   1.197  -0.092   3.840
    1MOL    H0H 1017   1.093   0.030   3.709
    1MOL    C0I 1018   1.410  -0.166   3.762
    1MOL    C0J 1019   1.677   0.086   3.104
    1MOL    C0K 1020   1.541   0.206   2.953
    1MOL    H0M 1021   1.355   0.252   3.040
    1MOL    C0N 1022   1.315  -0.168   3.862
    1MOL    H0O 1023   1.115  -0.085   3.909
    1MOL    H0P 1024   1.496  -0.230   3.767
    1MOL    H0Q 1025   1.770   0.031   3.123
    1MOL    C0R 1026   1.658   0.136   2.977
    1MOL    C0S 1027   1.524   0.266   2.826
    1MOL    H0T 1028   1.311  -0.211   3.954
    1MOL    C0U 1029   1.759   0.131   2.875
    1MOL    C0V 1030   1.621   0.265   2.725
    1MOL    H0W 1031   1.427   0.317   2.815
    1MOL    C0X 1032   1.738   0.193   2.749
    1MOL    H0Y 1033   1.837   0.059   2.879
    1MOL    H0Z 1034   1.587   0.296   2.626
    1MOL    H10 1035   1.806   0.164   2.670
    1MOL    C00 1037   1.474   1.298   2.010
    1MOL    C01 1038   1.374   1.293   2.106
    1MOL    C02 1039   1.590   1.224   2.028
    1MOL    C03 1040   1.457   1.361   1.885
    1MOL    C04 1041   1.379   1.222   2.229
    1MOL    H05 1042   1.283   1.345   2.080
    1MOL    C06 1043   1.601   1.157   2.150
    1MOL    C07 1044   1.682   1.227   1.925
    1MOL    C08 1045   1.553   1.359   1.782
    1MOL    H09 1046   1.369   1.418   1.856
    1MOL    C0A 1047   1.288   1.227   2.336
    1MOL    C0B 1048   1.503   1.152   2.251
    1MOL    H0C 1049   1.683   1.087   2.169
    1MOL    H0D 1050   1.772   1.175   1.941
    1MOL    C0E 1051   1.668   1.292   1.802
    1MOL    C0F 1052   1.541   1.425   1.655
    1MOL    C0G 1053   1.312   1.165   2.460
    1MOL    H0H 1054   1.198   1.283   2.329
    1MOL    C0I 1055   1.516   1.084   2.373
    1MOL    C0J 1056   1.762   1.298   1.698
    1MOL    C0K 1057   1.629   1.420   1.546
    1MOL    H0M 1058   1.452   1.477   1.642
    1MOL    C0N 1059   1.420   1.081   2.474
    1MOL    H0O 1060   1.237   1.191   2.538
    1MOL    H0P 1061   1.605   1.034   2.398
    1MOL    H0Q 1062   1.854   1.253   1.719
    1MOL    C0R 1063   1.750   1.352   1.569
    1MOL    C0S 1064   1.602   1.470   1.415
    1MOL    H0T 1065   1.441   1.033   2.565
    1MOL    C0U 1066   1.840   1.344   1.461
    1MOL    C0V 1067   1.699   1.469   1.315
    1MOL    H0W 1068   1.509   1.515   1.386
    1MOL    C0X 1069   1.824   1.409   1.336
    1MOL    H0Y 1070   1.932   1.305   1.493
    1MOL    H0Z 1071   1.686   1.515   1.226
    1MOL    H10 1072   1.898   1.412   1.261
    1MOL    C00 1074   1.404   0.937   0.588
    1MOL    C01 1075   1.316   0.931   0.701
    1MOL    C02 1076   1.528   0.875   0.606
    1MOL    C03 1077   1.380   1.000   0.462
    1MOL    C04 1078   1.339   0.864   0.822
    1MOL    H05 1079   1.212   0.976   0.690
    1MOL    C06 1080   1.548   0.808   0.729
    1MOL    C07 1081   1.617   0.888   0.496
    1MOL    C08 1082   1.471   1.012   0.357
    1MOL    H09 1083   1.284   1.052   0.441
    1MOL    C0A 1084   1.255   0.868   0.934
    1MOL    C0B 1085   1.461   0.798   0.829
    1MOL    H0C 1086   1.632   0.749   0.723
    1MOL    H0D 1087   1.714   0.840   0.506
    1MOL    C0E 1088   1.593   0.951   0.376
    1MOL    C0F 1089   1.449   1.072   0.231
    1MOL    C0G 1090   1.287   0.801   1.054
    1MOL    H0H 1091   1.158   0.923   0.928
    1MOL    C0I 1092   1.486   0.724   0.942
    1MOL    C0J 1093   1.684   0.955   0.265
    1MOL    C0K 1094   1.543   1.087   0.126
    1MOL    H0M 1095   1.360   1.130   0.219
    1MOL    C0N 1096   1.408   0.728   1.063
    1MOL    H0O 1097   1.219   0.822   1.137
    1MOL    H0P 1098   1.585   0.676   0.944
    1MOL    H0Q 1099   1.777   0.910   0.274
    1MOL    C0R 1100   1.664   1.021   0.145
    1MOL    C0S 1101   1.533   1.168   0.004
    1MOL    H0T 1102   1.444   0.687   1.153
    1MOL    C0U 1103   1.758   1.020   0.043
    1MOL    C0V 1104   1.630   1.167  -0.090
    1MOL    H0W 1105   1.448   1.227   0.003
    1MOL    C0X 1106   1.746   1.097  -0.070
    1MOL    H0Y 1107   1.855   0.974   0.060
    1MOL    H0Z 1108   1.603   1.230  -0.173
    1MOL    H10 1109   1.831   1.097  -0.145
    1MOL    C00 1111   1.356   0.181   0.588
    1MOL    C01 1112   1.271   0.170   0.699
    1MOL    C02 1113   1.476   0.112   0.606
    1MOL    C03 1114   1.333   0.241   0.460
    1MOL    C04 1115   1.290   0.105   0.822
    1MOL    H05 1116   1.179   0.229   0.689
    1MOL    C06 1117   1.496   0.042   0.727
    1MOL    C07 1118   1.563   0.112   0.490
    1MOL    C08 1119   1.420   0.241   0.351
    1MOL    H09 1120   1.248   0.298   0.446
    1MOL    C0A 1121   1.191   0.089   0.923
    1MOL    C0B 1122   1.411   0.032   0.834
    1MOL    H0C 1123   1.590  -0.010   0.734
    1MOL    H0D 1124   1.658   0.057   0.489
    1MOL    C0E 1125   1.541   0.176   0.370
    1MOL    C0F 1126   1.396   0.294   0.221
    1MOL    C0G 1127   1.217   0.019   1.041
    1MOL    H0H 1128   1.092   0.130   0.918
    1MOL    C0I 1129   1.429  -0.034   0.958
    1MOL    C0J 1130   1.632   0.178   0.258
    1MOL    C0K 1131   1.480   0.298   0.108
    1MOL    H0M 1132   1.310   0.363   0.208
    1MOL    C0N 1133   1.337  -0.034   1.057
    1MOL    H0O 1134   1.148   0.009   1.123
    1MOL    H0P 1135   1.521  -0.095   0.964
    1MOL    H0Q 1136   1.722   0.129   0.280
    1MOL    C0R 1137   1.605   0.230   0.126
    1MOL    C0S 1138   1.460   0.369  -0.014
    1MOL    H0T 1139   1.358  -0.094   1.142
    1MOL    C0U 1140   1.702   0.231   0.021
    1MOL    C0V 1141   1.554   0.374  -0.115
    1MOL    H0W 1142   1.370   0.430  -0.023
    1MOL    C0X 1143   1.674   0.304  -0.098
    1MOL    H0Y 1144   1.796   0.178   0.036
    1MOL    H0Z 1145   1.533   0.425  -0.212
    1MOL    H10 1146   1.742   0.295  -0.184
    1MOL    C00 1148   0.609   1.942   3.390
    1MOL    C01 1149   0.507   1.895   3.477
    1MOL    C02 1150   0.725   1.983   3.448
    1MOL    C03 1151   0.596   1.961   3.249
    1MOL    C04 1152   0.507   1.878   3.607
    1MOL    H05 1153   0.413   1.862   3.436
    1MOL    C06 1154   0.728   1.974   3.588
    1MOL    C07 1155   0.829   2.036   3.363
    1MOL    C08 1156   0.695   2.009   3.160
    1MOL    H09 1157   0.514   1.918   3.202
    1MOL    C0A 1158   0.407   1.823   3.689
    1MOL    C0B 1159   0.630   1.919   3.670
    1MOL    H0C 1160   0.821   2.001   3.644
    1MOL    H0D 1161   0.917   2.070   3.422
    1MOL    C0E 1162   0.812   2.064   3.223
    1MOL    C0F 1163   0.689   2.027   3.020
    1MOL    C0G 1164   0.417   1.812   3.830
    1MOL    H0H 1165   0.305   1.796   3.651
    1MOL    C0I 1166   0.639   1.901   3.811
    1MOL    C0J 1167   0.908   2.122   3.135
    1MOL    C0K 1168   0.780   2.091   2.936
    1MOL    H0M 1169   0.597   1.988   2.985
    1MOL    C0N 1170   0.536   1.854   3.887
    1MOL    H0O 1171   0.333   1.773   3.892
    1MOL    H0P 1172   0.736   1.928   3.846
    1MOL    H0Q 1173   1.001   2.159   3.183
    1MOL    C0R 1174   0.899   2.137   2.999
    1MOL    C0S 1175   0.762   2.120   2.802
    1MOL    H0T 1176   0.539   1.849   3.996
    1MOL    C0U 1177   0.998   2.185   2.914
    1MOL    C0V 1178   0.861   2.173   2.722
    1MOL    H0W 1179   0.667   2.091   2.757
    1MOL    C0X 1180   0.985   2.202   2.777
    1MOL    H0Y 1181   1.086   2.204   2.957
    1MOL    H0Z 1182   0.844   2.194   2.614
    1MOL    H10 1183   1.071   2.246   2.724
    1MOL    C00 1185   1.611   0.516   1.785
    1MOL    C01 1186   1.708   0.518   1.682
    1MOL    C02 1187   1.487   0.572   1.756
    1MOL    C03 1188   1.623   0.452   1.913
    1MOL    C04 1189   1.692   0.565   1.552
    1MOL    H05 1190   1.800   0.469   1.699
    1MOL    C06 1191   1.473   0.634   1.628
    1MOL    C07 1192   1.393   0.569   1.864
    1MOL    C08 1193   1.528   0.455   2.019
    1MOL    H09 1194   1.709   0.396   1.933
    1MOL    C0A 1195   1.790   0.559   1.450
    1MOL    C0B 1196   1.572   0.633   1.526
    1MOL    H0C 1197   1.394   0.705   1.613
    1MOL    H0D 1198   1.286   0.606   1.845
    1MOL    C0E 1199   1.410   0.523   1.991
    1MOL    C0F 1200   1.549   0.404   2.147
    1MOL    C0G 1201   1.779   0.630   1.332
    1MOL    H0H 1202   1.877   0.493   1.455
    1MOL    C0I 1203   1.567   0.713   1.413
    1MOL    C0J 1204   1.312   0.517   2.101
    1MOL    C0K 1205   1.453   0.393   2.247
    1MOL    H0M 1206   1.645   0.363   2.163
    1MOL    C0N 1207   1.673   0.716   1.320
    1MOL    H0O 1208   1.850   0.628   1.256
    1MOL    H0P 1209   1.483   0.778   1.390
    1MOL    H0Q 1210   1.221   0.573   2.076
    1MOL    C0R 1211   1.325   0.455   2.225
    1MOL    C0S 1212   1.474   0.332   2.375
    1MOL    H0T 1213   1.671   0.778   1.234
    1MOL    C0U 1214   1.224   0.443   2.322
    1MOL    C0V 1215   1.374   0.323   2.474
    1MOL    H0W 1216   1.574   0.290   2.379
    1MOL    C0X 1217   1.246   0.367   2.440
    1MOL    H0Y 1218   1.137   0.495   2.299
    1MOL    H0Z 1219   1.393   0.286   2.565
    1MOL    H10 1220   1.171   0.380   2.516
    1MOL    C00 1222   1.479   1.718   0.565
    1MOL    C01 1223   1.383   1.716   0.672
    1MOL    C02 1224   1.590   1.638   0.580
    1MOL    C03 1225   1.482   1.797   0.446
    1MOL    C04 1226   1.397   1.650   0.799
    1MOL    H05 1227   1.300   1.782   0.661
    1MOL    C06 1228   1.597   1.560   0.694
    1MOL    C07 1229   1.696   1.645   0.486
    1MOL    C08 1230   1.576   1.794   0.340
    1MOL    H09 1231   1.401   1.868   0.434
    1MOL    C0A 1232   1.309   1.660   0.914
    1MOL    C0B 1233   1.509   1.566   0.808
    1MOL    H0C 1234   1.691   1.504   0.704
    1MOL    H0D 1235   1.789   1.592   0.492
    1MOL    C0E 1236   1.686   1.714   0.363
    1MOL    C0F 1237   1.568   1.861   0.220
    1MOL    C0G 1238   1.333   1.590   1.030
    1MOL    H0H 1239   1.217   1.717   0.900
    1MOL    C0I 1240   1.530   1.493   0.922
    1MOL    C0J 1241   1.782   1.713   0.264
    1MOL    C0K 1242   1.656   1.852   0.110
    1MOL    H0M 1243   1.479   1.921   0.206
    1MOL    C0N 1244   1.449   1.506   1.036
    1MOL    H0O 1245   1.263   1.604   1.110
    1MOL    H0P 1246   1.627   1.444   0.934
    1MOL    H0Q 1247   1.870   1.654   0.290
    1MOL    C0R 1248   1.776   1.778   0.141
    1MOL    C0S 1249   1.640   1.916  -0.018
    1MOL    H0T 1250   1.458   1.460   1.132
    1MOL    C0U 1251   1.875   1.782   0.044
    1MOL    C0V 1252   1.747   1.924  -0.109
    1MOL    H0W 1253   1.548   1.975  -0.029
    1MOL    C0X 1254   1.864   1.855  -0.078
    1MOL    H0Y 1255   1.970   1.732   0.077
    1MOL    H0Z 1256   1.734   1.981  -0.195
    1MOL    H10 1257   1.945   1.851  -0.150
    1MOL    C00 1259   0.615   0.169   1.800
    1MOL    C01 1260   0.722   0.218   1.731
    1MOL    C02 1261   0.501   0.125   1.732
    1MOL    C03 1262   0.623   0.141   1.934
    1MOL    C04 1263   0.727   0.243   1.594
    1MOL    H05 1264   0.810   0.240   1.797
    1MOL    C06 1265   0.503   0.147   1.592
    1MOL    C07 1266   0.394   0.073   1.808
    1MOL    C08 1267   0.520   0.086   2.010
    1MOL    H09 1268   0.718   0.160   1.984
    1MOL    C0A 1269   0.840   0.286   1.513
    1MOL    C0B 1270   0.609   0.208   1.521
    1MOL    H0C 1271   0.410   0.124   1.536
    1MOL    H0D 1272   0.305   0.045   1.760
    1MOL    C0E 1273   0.400   0.055   1.947
    1MOL    C0F 1274   0.524   0.054   2.150
    1MOL    C0G 1275   0.838   0.302   1.377
    1MOL    H0H 1276   0.924   0.308   1.573
    1MOL    C0I 1277   0.612   0.227   1.381
    1MOL    C0J 1278   0.295   0.013   2.029
    1MOL    C0K 1279   0.421  -0.000   2.233
    1MOL    H0M 1280   0.616   0.078   2.200
    1MOL    C0N 1281   0.713   0.288   1.308
    1MOL    H0O 1282   0.923   0.326   1.318
    1MOL    H0P 1283   0.523   0.203   1.319
    1MOL    H0Q 1284   0.203  -0.006   1.984
    1MOL    C0R 1285   0.299  -0.013   2.167
    1MOL    C0S 1286   0.433  -0.041   2.368
    1MOL    H0T 1287   0.703   0.315   1.208
    1MOL    C0U 1288   0.190  -0.050   2.246
    1MOL    C0V 1289   0.327  -0.089   2.440
    1MOL    H0W 1290   0.531  -0.026   2.409
    1MOL    C0X 1291   0.205  -0.101   2.379
    1MOL    H0Y 1292   0.089  -0.049   2.199
    1MOL    H0Z 1293   0.329  -0.128   2.541
    1MOL    H10 1294   0.122  -0.142   2.433
    1MOL    C00 1296   0.470   0.400   3.379
    1MOL    C01 1297   0.380   0.345   3.467
    1MOL    C02 1298   0.589   0.446   3.432
    1MOL    C03 1299   0.449   0.415   3.239
    1MOL    C04 1300   0.395   0.327   3.605
    1MOL    H05 1301   0.286   0.307   3.443
    1MOL    C06 1302   0.602   0.434   3.574
    1MOL    C07 1303   0.691   0.486   3.343
    1MOL    C08 1304   0.552   0.462   3.154
    1MOL    H09 1305   0.359   0.390   3.193
    1MOL    C0A 1306   0.295   0.276   3.690
    1MOL    C0B 1307   0.518   0.368   3.663
    1MOL    H0C 1308   0.692   0.460   3.620
    1MOL    H0D 1309   0.786   0.505   3.385
    1MOL    C0E 1310   0.676   0.503   3.208
    1MOL    C0F 1311   0.537   0.480   3.015
    1MOL    C0G 1312   0.309   0.262   3.827
    1MOL    H0H 1313   0.194   0.258   3.654
    1MOL    C0I 1314   0.537   0.338   3.799
    1MOL    C0J 1315   0.772   0.557   3.120
    1MOL    C0K 1316   0.635   0.529   2.929
    1MOL    H0M 1317   0.443   0.445   2.978
    1MOL    C0N 1318   0.437   0.279   3.882
    1MOL    H0O 1319   0.218   0.239   3.885
    1MOL    H0P 1320   0.631   0.375   3.841
    1MOL    H0Q 1321   0.863   0.584   3.172
    1MOL    C0R 1322   0.758   0.574   2.984
    1MOL    C0S 1323   0.618   0.558   2.789
    1MOL    H0T 1324   0.456   0.258   3.981
    1MOL    C0U 1325   0.856   0.627   2.896
    1MOL    C0V 1326   0.718   0.606   2.700
    1MOL    H0W 1327   0.521   0.527   2.754
    1MOL    C0X 1328   0.847   0.637   2.754
    1MOL    H0Y 1329   0.948   0.662   2.946
    1MOL    H0Z 1330   0.695   0.606   2.599
    1MOL    H10 1331   0.933   0.669   2.693
    1MOL    C00 1333   1.801   1.145   3.374
    1MOL    C01 1334   1.703   1.086   3.461
    1MOL    C02 1335   1.913   1.192   3.431
    1MOL    C03 1336   1.783   1.163   3.236
    1MOL    C04 1337   1.704   1.077   3.602
    1MOL    H05 1338   1.610   1.058   3.414
    1MOL    C06 1339   1.917   1.178   3.573
    1MOL    C07 1340   2.010   1.247   3.347
    1MOL    C08 1341   1.883   1.218   3.151
    1MOL    H09 1342   1.685   1.133   3.192
    1MOL    C0A 1343   1.597   1.041   3.688
    1MOL    C0B 1344   1.824   1.121   3.660
    1MOL    H0C 1345   2.004   1.218   3.621
    1MOL    H0D 1346   2.102   1.284   3.388
    1MOL    C0E 1347   1.999   1.263   3.209
    1MOL    C0F 1348   1.872   1.241   3.009
    1MOL    C0G 1349   1.616   1.027   3.826
    1MOL    H0H 1350   1.503   1.022   3.639
    1MOL    C0I 1351   1.840   1.110   3.800
    1MOL    C0J 1352   2.098   1.322   3.118
    1MOL    C0K 1353   1.964   1.300   2.925
    1MOL    H0M 1354   1.781   1.204   2.968
    1MOL    C0N 1355   1.745   1.056   3.884
    1MOL    H0O 1356   1.528   0.976   3.874
    1MOL    H0P 1357   1.938   1.139   3.834
    1MOL    H0Q 1358   2.187   1.357   3.171
    1MOL    C0R 1359   2.086   1.340   2.983
    1MOL    C0S 1360   1.942   1.318   2.788
    1MOL    H0T 1361   1.762   1.038   3.988
    1MOL    C0U 1362   2.173   1.405   2.900
    1MOL    C0V 1363   2.038   1.375   2.700
    1MOL    H0W 1364   1.843   1.298   2.753
    1MOL    C0X 1365   2.155   1.420   2.763
    1MOL    H0Y 1366   2.269   1.441   2.926
    1MOL    H0Z 1367   2.013   1.379   2.600
    1MOL    H10 1368   2.235   1.469   2.700
    1MOL    C00 1370   1.769   0.852   1.969
    1MOL    C01 1371   1.680   0.785   2.060
    1MOL    C02 1372   1.879   0.899   2.030
    1MOL    C03 1373   1.754   0.854   1.828
    1MOL    C04 1374   1.686   0.779   2.201
    1MOL    H05 1375   1.595   0.743   2.017
    1MOL    C06 1376   1.894   0.886   2.172
    1MOL    C07 1377   1.979   0.948   1.940
    1MOL    C08 1378   1.840   0.921   1.745
    1MOL    H09 1379   1.669   0.799   1.785
    1MOL    C0A 1380   1.590   0.719   2.287
    1MOL    C0B 1381   1.798   0.839   2.264
    1MOL    H0C 1382   1.988   0.908   2.223
    1MOL    H0D 1383   2.069   0.989   1.980
    1MOL    C0E 1384   1.957   0.965   1.801
    1MOL    C0F 1385   1.811   0.947   1.610
    1MOL    C0G 1386   1.600   0.701   2.424
    1MOL    H0H 1387   1.500   0.681   2.232
    1MOL    C0I 1388   1.805   0.830   2.405
    1MOL    C0J 1389   2.045   1.025   1.704
    1MOL    C0K 1390   1.901   0.990   1.511
    1MOL    H0M 1391   1.704   0.916   1.590
    1MOL    C0N 1392   1.715   0.756   2.487
    1MOL    H0O 1393   1.524   0.652   2.479
    1MOL    H0P 1394   1.897   0.867   2.446
    1MOL    H0Q 1395   2.142   1.058   1.748
    1MOL    C0R 1396   2.027   1.033   1.565
    1MOL    C0S 1397   1.885   0.994   1.375
    1MOL    H0T 1398   1.729   0.757   2.599
    1MOL    C0U 1399   2.125   1.070   1.472
    1MOL    C0V 1400   1.980   1.033   1.285
    1MOL    H0W 1401   1.788   0.967   1.333
    1MOL    C0X 1402   2.099   1.081   1.338
    1MOL    H0Y 1403   2.218   1.101   1.516
    1MOL    H0Z 1404   1.969   1.025   1.175
    1MOL    H10 1405   2.177   1.116   1.276
    1MOL    C00 1407   0.153   1.722   1.796
    1MOL    C01 1408   0.253   1.780   1.710
    1MOL    C02 1409   0.030   1.688   1.739
    1MOL    C03 1410   0.157   1.698   1.937
    1MOL    C04 1411   0.243   1.788   1.573
    1MOL    H05 1412   0.343   1.819   1.758
    1MOL    C06 1413   0.025   1.699   1.600
    1MOL    C07 1414  -0.072   1.636   1.824
    1MOL    C08 1415   0.052   1.650   2.020
    1MOL    H09 1416   0.253   1.714   1.983
    1MOL    C0A 1417   0.342   1.843   1.487
    1MOL    C0B 1418   0.124   1.747   1.511
    1MOL    H0C 1419  -0.062   1.656   1.559
    1MOL    H0D 1420  -0.165   1.616   1.778
    1MOL    C0E 1421  -0.064   1.616   1.961
    1MOL    C0F 1422   0.063   1.633   2.155
    1MOL    C0G 1423   0.322   1.857   1.347
    1MOL    H0H 1424   0.433   1.880   1.532
    1MOL    C0I 1425   0.111   1.755   1.375
    1MOL    C0J 1426  -0.163   1.566   2.047
    1MOL    C0K 1427  -0.045   1.591   2.246
    1MOL    H0M 1428   0.154   1.661   2.198
    1MOL    C0N 1429   0.204   1.806   1.287
    1MOL    H0O 1430   0.412   1.885   1.291
    1MOL    H0P 1431   0.018   1.725   1.332
    1MOL    H0Q 1432  -0.256   1.543   2.006
    1MOL    C0R 1433  -0.168   1.551   2.186
    1MOL    C0S 1434  -0.036   1.574   2.388
    1MOL    H0T 1435   0.193   1.824   1.188
    1MOL    C0U 1436  -0.280   1.513   2.268
    1MOL    C0V 1437  -0.143   1.543   2.465
    1MOL    H0W 1438   0.057   1.585   2.447
    1MOL    C0X 1439  -0.268   1.514   2.410
    1MOL    H0Y 1440  -0.377   1.479   2.220
    1MOL    H0Z 1441  -0.135   1.539   2.572
    1MOL    H10 1442  -0.353   1.493   2.472
    1MOL    C00 1444  -0.030   1.933   3.382
    1MOL    C01 1445  -0.123   1.868   3.465
    1MOL    C02 1446   0.079   1.987   3.441
    1MOL    C03 1447  -0.035   1.940   3.244
    1MOL    C04 1448  -0.114   1.851   3.604
    1MOL    H05 1449  -0.204   1.811   3.423
    1MOL    C06 1450   0.090   1.968   3.587
    1MOL    C07 1451   0.174   2.044   3.359
    1MOL    C08 1452   0.065   2.000   3.160
    1MOL    H09 1453  -0.117   1.896   3.195
    1MOL    C0A 1454  -0.211   1.782   3.681
    1MOL    C0B 1455  -0.002   1.903   3.668
    1MOL    H0C 1456   0.176   2.012   3.643
    1MOL    H0D 1457   0.269   2.078   3.405
    1MOL    C0E 1458   0.176   2.056   3.223
    1MOL    C0F 1459   0.060   2.009   3.018
    1MOL    C0G 1460  -0.207   1.779   3.819
    1MOL    H0H 1461  -0.301   1.740   3.628
    1MOL    C0I 1462   0.005   1.888   3.807
    1MOL    C0J 1463   0.274   2.112   3.139
    1MOL    C0K 1464   0.152   2.072   2.936
    1MOL    H0M 1465  -0.030   1.972   2.965
    1MOL    C0N 1466  -0.094   1.829   3.886
    1MOL    H0O 1467  -0.281   1.741   3.875
    1MOL    H0P 1468   0.095   1.932   3.849
    1MOL    H0Q 1469   0.360   2.146   3.190
    1MOL    C0R 1470   0.260   2.135   3.000
    1MOL    C0S 1471   0.139   2.089   2.801
    1MOL    H0T 1472  -0.076   1.811   3.988
    1MOL    C0U 1473   0.352   2.206   2.919
    1MOL    C0V 1474   0.231   2.155   2.716
    1MOL    H0W 1475   0.046   2.060   2.753
    1MOL    C0X 1476   0.347   2.200   2.778
    1MOL    H0Y 1477   0.435   2.256   2.968
    1MOL    H0Z 1478   0.213   2.170   2.615
    1MOL    H10 1479   0.421   2.243   2.721
    1MOL    C00 1481   1.723   0.394   3.396
    1MOL    C01 1482   1.627   0.345   3.490
    1MOL    C02 1483   1.841   0.438   3.456
    1MOL    C03 1484   1.709   0.409   3.259
    1MOL    C04 1485   1.629   0.339   3.628
    1MOL    H05 1486   1.539   0.301   3.446
    1MOL    C06 1487   1.851   0.434   3.600
    1MOL    C07 1488   1.940   0.482   3.368
    1MOL    C08 1489   1.807   0.477   3.174
    1MOL    H09 1490   1.621   0.375   3.213
    1MOL    C0A 1491   1.530   0.283   3.712
    1MOL    C0B 1492   1.748   0.387   3.692
    1MOL    H0C 1493   1.937   0.475   3.640
    1MOL    H0D 1494   2.038   0.508   3.394
    1MOL    C0E 1495   1.926   0.509   3.233
    1MOL    C0F 1496   1.801   0.483   3.028
    1MOL    C0G 1497   1.543   0.273   3.849
    1MOL    H0H 1498   1.442   0.251   3.660
    1MOL    C0I 1499   1.763   0.379   3.831
    1MOL    C0J 1500   2.020   0.559   3.144
    1MOL    C0K 1501   1.893   0.531   2.944
    1MOL    H0M 1502   1.713   0.446   2.978
    1MOL    C0N 1503   1.660   0.322   3.909
    1MOL    H0O 1504   1.459   0.232   3.907
    1MOL    H0P 1505   1.852   0.423   3.880
    1MOL    H0Q 1506   2.109   0.598   3.190
    1MOL    C0R 1507   2.012   0.579   3.004
    1MOL    C0S 1508   1.877   0.544   2.801
    1MOL    H0T 1509   1.671   0.312   4.016
    1MOL    C0U 1510   2.112   0.632   2.915
    1MOL    C0V 1511   1.975   0.601   2.721
    1MOL    H0W 1512   1.778   0.517   2.764
    1MOL    C0X 1513   2.096   0.635   2.777
    1MOL    H0Y 1514   2.205   0.667   2.953
    1MOL    H0Z 1515   1.961   0.615   2.617
    1MOL    H10 1516   2.175   0.666   2.714
    1MOL    C00 1518   1.694   0.485   0.579
    1MOL    C01 1519   1.597   0.430   0.668
    1MOL    C02 1520   1.813   0.531   0.630
    1MOL    C03 1521   1.673   0.505   0.442
    1MOL    C04 1522   1.616   0.419   0.805
    1MOL    H05 1523   1.503   0.393   0.631
    1MOL    C06 1524   1.831   0.516   0.770
    1MOL    C07 1525   1.902   0.594   0.537
    1MOL    C08 1526   1.768   0.565   0.350
    1MOL    H09 1527   1.577   0.460   0.411
    1MOL    C0A 1528   1.516   0.377   0.899
    1MOL    C0B 1529   1.742   0.461   0.859
    1MOL    H0C 1530   1.917   0.552   0.819
    1MOL    H0D 1531   1.993   0.630   0.587
    1MOL    C0E 1532   1.885   0.614   0.403
    1MOL    C0F 1533   1.743   0.579   0.214
    1MOL    C0G 1534   1.547   0.354   1.032
    1MOL    H0H 1535   1.417   0.356   0.859
    1MOL    C0I 1536   1.762   0.447   0.994
    1MOL    C0J 1537   1.973   0.678   0.315
    1MOL    C0K 1538   1.833   0.641   0.126
    1MOL    H0M 1539   1.648   0.540   0.178
    1MOL    C0N 1540   1.673   0.384   1.080
    1MOL    H0O 1541   1.480   0.303   1.094
    1MOL    H0P 1542   1.856   0.467   1.037
    1MOL    H0Q 1543   2.062   0.717   0.345
    1MOL    C0R 1544   1.958   0.683   0.174
    1MOL    C0S 1545   1.805   0.664  -0.011
    1MOL    H0T 1546   1.700   0.363   1.184
    1MOL    C0U 1547   2.059   0.726   0.083
    1MOL    C0V 1548   1.901   0.718  -0.099
    1MOL    H0W 1549   1.703   0.652  -0.037
    1MOL    C0X 1550   2.029   0.742  -0.054
    1MOL    H0Y 1551   2.156   0.744   0.120
    1MOL    H0Z 1552   1.883   0.739  -0.207
    1MOL    H10 1553   2.104   0.758  -0.128
    1MOL    C00 1555   1.773   1.278   0.544
    1MOL    C01 1556   1.678   1.222   0.632
    1MOL    C02 1557   1.894   1.322   0.603
    1MOL    C03 1558   1.761   1.286   0.403
    1MOL    C04 1559   1.689   1.203   0.769
    1MOL    H05 1560   1.593   1.180   0.597
    1MOL    C06 1561   1.905   1.308   0.746
    1MOL    C07 1562   1.988   1.376   0.512
    1MOL    C08 1563   1.854   1.350   0.319
    1MOL    H09 1564   1.669   1.239   0.357
    1MOL    C0A 1565   1.594   1.141   0.852
    1MOL    C0B 1566   1.806   1.254   0.831
    1MOL    H0C 1567   2.001   1.339   0.787
    1MOL    H0D 1568   2.083   1.422   0.552
    1MOL    C0E 1569   1.969   1.398   0.373
    1MOL    C0F 1570   1.840   1.357   0.182
    1MOL    C0G 1571   1.603   1.134   0.991
    1MOL    H0H 1572   1.509   1.092   0.797
    1MOL    C0I 1573   1.817   1.247   0.970
    1MOL    C0J 1574   2.068   1.449   0.282
    1MOL    C0K 1575   1.940   1.393   0.092
    1MOL    H0M 1576   1.733   1.339   0.143
    1MOL    C0N 1577   1.720   1.181   1.050
    1MOL    H0O 1578   1.529   1.097   1.055
    1MOL    H0P 1579   1.904   1.289   1.008
    1MOL    H0Q 1580   2.154   1.503   0.323
    1MOL    C0R 1581   2.062   1.448   0.146
    1MOL    C0S 1582   1.923   1.390  -0.046
    1MOL    H0T 1583   1.735   1.172   1.158
    1MOL    C0U 1584   2.157   1.500   0.054
    1MOL    C0V 1585   2.021   1.447  -0.136
    1MOL    H0W 1586   1.841   1.349  -0.105
    1MOL    C0X 1587   2.140   1.503  -0.083
    1MOL    H0Y 1588   2.244   1.536   0.093
    1MOL    H0Z 1589   2.007   1.433  -0.239
    1MOL    H10 1590   2.214   1.545  -0.149
    1MOL    C00 1592   1.864   0.191   1.818
    1MOL    C01 1593   1.959   0.249   1.732
    1MOL    C02 1594   1.746   0.140   1.763
    1MOL    C03 1595   1.874   0.185   1.957
    1MOL    C04 1596   1.952   0.250   1.592
    1MOL    H05 1597   2.043   0.298   1.776
    1MOL    C06 1598   1.737   0.144   1.627
    1MOL    C07 1599   1.651   0.082   1.852
    1MOL    C08 1600   1.781   0.127   2.049
    1MOL    H09 1601   1.965   0.221   1.998
    1MOL    C0A 1602   2.049   0.302   1.504
    1MOL    C0B 1603   1.836   0.188   1.532
    1MOL    H0C 1604   1.645   0.115   1.581
    1MOL    H0D 1605   1.569   0.033   1.801
    1MOL    C0E 1606   1.667   0.069   1.993
    1MOL    C0F 1607   1.787   0.119   2.188
    1MOL    C0G 1608   2.040   0.290   1.362
    1MOL    H0H 1609   2.131   0.345   1.558
    1MOL    C0I 1610   1.829   0.182   1.393
    1MOL    C0J 1611   1.578   0.001   2.088
    1MOL    C0K 1612   1.709   0.044   2.283
    1MOL    H0M 1613   1.872   0.174   2.228
    1MOL    C0N 1614   1.925   0.235   1.306
    1MOL    H0O 1615   2.119   0.329   1.297
    1MOL    H0P 1616   1.752   0.126   1.340
    1MOL    H0Q 1617   1.503  -0.046   2.039
    1MOL    C0R 1618   1.596  -0.018   2.224
    1MOL    C0S 1619   1.736   0.018   2.424
    1MOL    H0T 1620   1.911   0.224   1.198
    1MOL    C0U 1621   1.509  -0.084   2.311
    1MOL    C0V 1622   1.646  -0.046   2.507
    1MOL    H0W 1623   1.828   0.056   2.462
    1MOL    C0X 1624   1.530  -0.099   2.448
    1MOL    H0Y 1625   1.432  -0.142   2.273
    1MOL    H0Z 1626   1.658  -0.048   2.608
    1MOL    H10 1627   1.450  -0.139   2.521
    1MOL    C00 1629  -0.042   2.045   0.547
    1MOL    C01 1630  -0.128   1.990   0.643
    1MOL    C02 1631   0.074   2.098   0.600
    1MOL    C03 1632  -0.068   2.061   0.408
    1MOL    C04 1633  -0.110   1.975   0.780
    1MOL    H05 1634  -0.218   1.941   0.612
    1MOL    C06 1635   0.097   2.093   0.739
    1MOL    C07 1636   0.166   2.157   0.512
    1MOL    C08 1637   0.016   2.128   0.320
    1MOL    H09 1638  -0.158   2.011   0.367
    1MOL    C0A 1639  -0.198   1.913   0.872
    1MOL    C0B 1640   0.006   2.033   0.832
    1MOL    H0C 1641   0.182   2.147   0.781
    1MOL    H0D 1642   0.254   2.206   0.558
    1MOL    C0E 1643   0.144   2.168   0.373
    1MOL    C0F 1644  -0.002   2.151   0.180
    1MOL    C0G 1645  -0.170   1.904   1.007
    1MOL    H0H 1646  -0.291   1.877   0.835
    1MOL    C0I 1647   0.038   2.025   0.972
    1MOL    C0J 1648   0.235   2.227   0.279
    1MOL    C0K 1649   0.087   2.212   0.092
    1MOL    H0M 1650  -0.092   2.112   0.135
    1MOL    C0N 1651  -0.050   1.957   1.055
    1MOL    H0O 1652  -0.234   1.854   1.075
    1MOL    H0P 1653   0.117   2.082   1.003
    1MOL    H0Q 1654   0.323   2.257   0.326
    1MOL    C0R 1655   0.214   2.250   0.141
    1MOL    C0S 1656   0.064   2.226  -0.052
    1MOL    H0T 1657  -0.028   1.964   1.161
    1MOL    C0U 1658   0.308   2.306   0.054
    1MOL    C0V 1659   0.165   2.269  -0.141
    1MOL    H0W 1660  -0.030   2.197  -0.092
    1MOL    C0X 1661   0.283   2.313  -0.086
    1MOL    H0Y 1662   0.390   2.354   0.104
    1MOL    H0Z 1663   0.157   2.276  -0.247
    1MOL    H10 1664   0.367   2.352  -0.147
    1MOL    C00 1666   0.411   1.286   1.779
    1MOL    C01 1667   0.502   1.290   1.679
    1MOL    C02 1668   0.296   1.350   1.755
    1MOL    C03 1669   0.421   1.215   1.903
    1MOL    C04 1670   0.497   1.361   1.556
    1MOL    H05 1671   0.586   1.224   1.695
    1MOL    C06 1672   0.282   1.423   1.638
    1MOL    C07 1673   0.196   1.336   1.855
    1MOL    C08 1674   0.323   1.210   2.005
    1MOL    H09 1675   0.517   1.160   1.904
    1MOL    C0A 1676   0.597   1.366   1.454
    1MOL    C0B 1677   0.374   1.430   1.538
    1MOL    H0C 1678   0.193   1.479   1.616
    1MOL    H0D 1679   0.104   1.383   1.825
    1MOL    C0E 1680   0.207   1.279   1.982
    1MOL    C0F 1681   0.341   1.144   2.124
    1MOL    C0G 1682   0.576   1.435   1.337
    1MOL    H0H 1683   0.693   1.309   1.471
    1MOL    C0I 1684   0.352   1.489   1.412
    1MOL    C0J 1685   0.116   1.273   2.094
    1MOL    C0K 1686   0.248   1.137   2.229
    1MOL    H0M 1687   0.430   1.086   2.142
    1MOL    C0N 1688   0.449   1.491   1.310
    1MOL    H0O 1689   0.651   1.433   1.250
    1MOL    H0P 1690   0.258   1.533   1.388
    1MOL    H0Q 1691   0.018   1.313   2.081
    1MOL    C0R 1692   0.132   1.213   2.216
    1MOL    C0S 1693   0.265   1.067   2.350
    1MOL    H0T 1694   0.416   1.528   1.214
    1MOL    C0U 1695   0.035   1.214   2.320
    1MOL    C0V 1696   0.168   1.074   2.458
    1MOL    H0W 1697   0.364   1.015   2.352
    1MOL    C0X 1698   0.054   1.151   2.443
    1MOL    H0Y 1699  -0.057   1.269   2.308
    1MOL    H0Z 1700   0.181   1.015   2.538
    1MOL    H10 1701  -0.016   1.157   2.527
    1MOL    C00 1703   0.341   0.954   0.365
    1MOL    C01 1704   0.432   0.966   0.261
    1MOL    C02 1705   0.222   1.022   0.354
    1MOL    C03 1706   0.361   0.887   0.486
    1MOL    C04 1707   0.418   1.030   0.141
    1MOL    H05 1708   0.527   0.922   0.273
    1MOL    C06 1709   0.204   1.089   0.228
    1MOL    C07 1710   0.129   1.008   0.465
    1MOL    C08 1711   0.270   0.878   0.595
    1MOL    H09 1712   0.448   0.833   0.496
    1MOL    C0A 1713   0.512   1.032   0.035
    1MOL    C0B 1714   0.295   1.088   0.119
    1MOL    H0C 1715   0.113   1.150   0.202
    1MOL    H0D 1716   0.023   1.036   0.452
    1MOL    C0E 1717   0.150   0.952   0.586
    1MOL    C0F 1718   0.277   0.803   0.710
    1MOL    C0G 1719   0.491   1.090  -0.088
    1MOL    H0H 1720   0.602   0.983   0.057
    1MOL    C0I 1721   0.273   1.147  -0.008
    1MOL    C0J 1722   0.060   0.951   0.690
    1MOL    C0K 1723   0.190   0.798   0.818
    1MOL    H0M 1724   0.369   0.752   0.718
    1MOL    C0N 1725   0.371   1.159  -0.114
    1MOL    H0O 1726   0.572   1.094  -0.159
    1MOL    H0P 1727   0.179   1.183  -0.036
    1MOL    H0Q 1728  -0.030   1.017   0.671
    1MOL    C0R 1729   0.075   0.879   0.810
    1MOL    C0S 1730   0.218   0.725   0.935
    1MOL    H0T 1731   0.359   1.197  -0.216
    1MOL    C0U 1732  -0.014   0.879   0.922
    1MOL    C0V 1733   0.137   0.738   1.049
    1MOL    H0W 1734   0.305   0.662   0.945
    1MOL    C0X 1735   0.016   0.808   1.039
    1MOL    H0Y 1736  -0.108   0.936   0.914
    1MOL    H0Z 1737   0.156   0.682   1.137
    1MOL    H10 1738  -0.052   0.809   1.122
    1MOL    C00 1740   0.453   1.597   3.228
    1MOL    C01 1741   0.553   1.597   3.128
    1MOL    C02 1742   0.335   1.667   3.202
    1MOL    C03 1743   0.456   1.526   3.353
    1MOL    C04 1744   0.547   1.658   3.005
    1MOL    H05 1745   0.644   1.541   3.152
    1MOL    C06 1746   0.330   1.722   3.072
    1MOL    C07 1747   0.245   1.668   3.310
    1MOL    C08 1748   0.359   1.528   3.454
    1MOL    H09 1749   0.550   1.476   3.371
    1MOL    C0A 1750   0.646   1.657   2.899
    1MOL    C0B 1751   0.423   1.724   2.974
    1MOL    H0C 1752   0.239   1.775   3.044
    1MOL    H0D 1753   0.155   1.727   3.290
    1MOL    C0E 1754   0.243   1.592   3.426
    1MOL    C0F 1755   0.360   1.448   3.572
    1MOL    C0G 1756   0.629   1.722   2.777
    1MOL    H0H 1757   0.739   1.610   2.925
    1MOL    C0I 1758   0.416   1.784   2.847
    1MOL    C0J 1759   0.137   1.579   3.521
    1MOL    C0K 1760   0.262   1.444   3.671
    1MOL    H0M 1761   0.441   1.378   3.592
    1MOL    C0N 1762   0.512   1.786   2.753
    1MOL    H0O 1763   0.700   1.716   2.696
    1MOL    H0P 1764   0.328   1.845   2.834
    1MOL    H0Q 1765   0.051   1.640   3.504
    1MOL    C0R 1766   0.139   1.511   3.644
    1MOL    C0S 1767   0.270   1.373   3.798
    1MOL    H0T 1768   0.488   1.833   2.652
    1MOL    C0U 1769   0.034   1.496   3.737
    1MOL    C0V 1770   0.171   1.386   3.900
    1MOL    H0W 1771   0.365   1.328   3.818
    1MOL    C0X 1772   0.049   1.442   3.859
    1MOL    H0Y 1773  -0.061   1.538   3.715
    1MOL    H0Z 1774   0.192   1.346   3.997
    1MOL    H10 1775  -0.027   1.460   3.929
    1MOL    C00 1777   0.105   0.173   0.580
    1MOL    C01 1778   0.013   0.169   0.684
    1MOL    C02 1779   0.223   0.101   0.591
    1MOL    C03 1780   0.081   0.235   0.455
    1MOL    C04 1781   0.027   0.101   0.805
    1MOL    H05 1782  -0.083   0.222   0.680
    1MOL    C06 1783   0.236   0.028   0.713
    1MOL    C07 1784   0.313   0.112   0.481
    1MOL    C08 1785   0.174   0.243   0.345
    1MOL    H09 1786  -0.014   0.288   0.442
    1MOL    C0A 1787  -0.073   0.090   0.905
    1MOL    C0B 1788   0.144   0.028   0.823
    1MOL    H0C 1789   0.320  -0.032   0.727
    1MOL    H0D 1790   0.403   0.051   0.479
    1MOL    C0E 1791   0.295   0.177   0.362
    1MOL    C0F 1792   0.154   0.319   0.225
    1MOL    C0G 1793  -0.064   0.014   1.023
    1MOL    H0H 1794  -0.161   0.153   0.886
    1MOL    C0I 1795   0.151  -0.046   0.942
    1MOL    C0J 1796   0.386   0.186   0.250
    1MOL    C0K 1797   0.243   0.324   0.115
    1MOL    H0M 1798   0.059   0.366   0.227
    1MOL    C0N 1799   0.060  -0.047   1.044
    1MOL    H0O 1800  -0.150   0.018   1.088
    1MOL    H0P 1801   0.240  -0.107   0.939
    1MOL    H0Q 1802   0.478   0.137   0.261
    1MOL    C0R 1803   0.364   0.260   0.129
    1MOL    C0S 1804   0.216   0.398  -0.002
    1MOL    H0T 1805   0.078  -0.105   1.125
    1MOL    C0U 1806   0.450   0.262   0.014
    1MOL    C0V 1807   0.299   0.404  -0.114
    1MOL    H0W 1808   0.119   0.443  -0.000
    1MOL    C0X 1809   0.417   0.331  -0.104
    1MOL    H0Y 1810   0.534   0.193   0.023
    1MOL    H0Z 1811   0.271   0.457  -0.202
    1MOL    H10 1812   0.481   0.310  -0.188
    1MOL    C00 1814   0.188   0.813   3.388
    1MOL    C01 1815   0.087   0.800   3.489
    1MOL    C02 1816   0.314   0.764   3.414
    1MOL    C03 1817   0.175   0.888   3.272
    1MOL    C04 1818   0.110   0.747   3.615
    1MOL    H05 1819  -0.008   0.848   3.460
    1MOL    C06 1820   0.330   0.700   3.539
    1MOL    C07 1821   0.412   0.773   3.316
    1MOL    C08 1822   0.273   0.900   3.169
    1MOL    H09 1823   0.078   0.940   3.262
    1MOL    C0A 1824   0.021   0.751   3.724
    1MOL    C0B 1825   0.240   0.691   3.641
    1MOL    H0C 1826   0.429   0.651   3.565
    1MOL    H0D 1827   0.508   0.738   3.339
    1MOL    C0E 1828   0.389   0.829   3.188
    1MOL    C0F 1829   0.258   0.963   3.046
    1MOL    C0G 1830   0.049   0.703   3.854
    1MOL    H0H 1831  -0.076   0.794   3.709
    1MOL    C0I 1832   0.263   0.639   3.771
    1MOL    C0J 1833   0.475   0.827   3.084
    1MOL    C0K 1834   0.352   0.971   2.946
    1MOL    H0M 1835   0.167   1.026   3.035
    1MOL    C0N 1836   0.169   0.634   3.875
    1MOL    H0O 1837  -0.029   0.711   3.928
    1MOL    H0P 1838   0.352   0.596   3.791
    1MOL    H0Q 1839   0.570   0.770   3.100
    1MOL    C0R 1840   0.463   0.889   2.965
    1MOL    C0S 1841   0.333   1.040   2.825
    1MOL    H0T 1842   0.184   0.581   3.961
    1MOL    C0U 1843   0.549   0.885   2.856
    1MOL    C0V 1844   0.419   1.031   2.720
    1MOL    H0W 1845   0.249   1.108   2.809
    1MOL    C0X 1846   0.532   0.951   2.735
    1MOL    H0Y 1847   0.634   0.814   2.871
    1MOL    H0Z 1848   0.397   1.080   2.626
    1MOL    H10 1849   0.608   0.951   2.659
    1MOL    C00 1851   0.334   0.508   1.799
    1MOL    C01 1852   0.423   0.503   1.685
    1MOL    C02 1853   0.221   0.580   1.782
    1MOL    C03 1854   0.346   0.438   1.922
    1MOL    C04 1855   0.407   0.574   1.559
    1MOL    H05 1856   0.507   0.438   1.708
    1MOL    C06 1857   0.205   0.645   1.660
    1MOL    C07 1858   0.132   0.594   1.896
    1MOL    C08 1859   0.252   0.441   2.034
    1MOL    H09 1860   0.432   0.378   1.931
    1MOL    C0A 1861   0.496   0.572   1.446
    1MOL    C0B 1862   0.286   0.648   1.551
    1MOL    H0C 1863   0.119   0.694   1.644
    1MOL    H0D 1864   0.044   0.651   1.881
    1MOL    C0E 1865   0.147   0.529   2.020
    1MOL    C0F 1866   0.263   0.372   2.154
    1MOL    C0G 1867   0.480   0.644   1.330
    1MOL    H0H 1868   0.579   0.509   1.453
    1MOL    C0I 1869   0.264   0.713   1.428
    1MOL    C0J 1870   0.056   0.535   2.128
    1MOL    C0K 1871   0.170   0.371   2.260
    1MOL    H0M 1872   0.352   0.312   2.173
    1MOL    C0N 1873   0.362   0.715   1.321
    1MOL    H0O 1874   0.559   0.622   1.254
    1MOL    H0P 1875   0.172   0.773   1.408
    1MOL    H0Q 1876  -0.022   0.599   2.120
    1MOL    C0R 1877   0.055   0.457   2.240
    1MOL    C0S 1878   0.180   0.302   2.385
    1MOL    H0T 1879   0.347   0.762   1.229
    1MOL    C0U 1880  -0.047   0.448   2.340
    1MOL    C0V 1881   0.082   0.312   2.486
    1MOL    H0W 1882   0.270   0.248   2.404
    1MOL    C0X 1883  -0.038   0.380   2.460
    1MOL    H0Y 1884  -0.136   0.499   2.313
    1MOL    H0Z 1885   0.097   0.282   2.590
    1MOL    H10 1886  -0.113   0.391   2.538
    1MOL    C00 1888   0.489   2.049   1.788
    1MOL    C01 1889   0.587   2.061   1.688
    1MOL    C02 1890   0.373   2.126   1.768
    1MOL    C03 1891   0.505   1.986   1.911
    1MOL    C04 1892   0.580   2.132   1.568
    1MOL    H05 1893   0.681   2.020   1.716
    1MOL    C06 1894   0.360   2.191   1.644
    1MOL    C07 1895   0.277   2.120   1.868
    1MOL    C08 1896   0.412   1.981   2.016
    1MOL    H09 1897   0.597   1.935   1.921
    1MOL    C0A 1898   0.678   2.136   1.469
    1MOL    C0B 1899   0.459   2.203   1.544
    1MOL    H0C 1900   0.262   2.243   1.635
    1MOL    H0D 1901   0.188   2.171   1.847
    1MOL    C0E 1902   0.293   2.047   1.990
    1MOL    C0F 1903   0.418   1.913   2.144
    1MOL    C0G 1904   0.659   2.191   1.340
    1MOL    H0H 1905   0.772   2.088   1.502
    1MOL    C0I 1906   0.441   2.269   1.419
    1MOL    C0J 1907   0.196   2.051   2.099
    1MOL    C0K 1908   0.334   1.914   2.251
    1MOL    H0M 1909   0.504   1.857   2.160
    1MOL    C0N 1910   0.539   2.262   1.316
    1MOL    H0O 1911   0.731   2.181   1.265
    1MOL    H0P 1912   0.351   2.316   1.400
    1MOL    H0Q 1913   0.113   2.120   2.083
    1MOL    C0R 1914   0.210   1.986   2.230
    1MOL    C0S 1915   0.358   1.857   2.380
    1MOL    H0T 1916   0.516   2.310   1.218
    1MOL    C0U 1917   0.123   1.992   2.338
    1MOL    C0V 1918   0.262   1.851   2.481
    1MOL    H0W 1919   0.445   1.795   2.396
    1MOL    C0X 1920   0.140   1.913   2.456
    1MOL    H0Y 1921   0.024   2.042   2.313
    1MOL    H0Z 1922   0.267   1.793   2.568
    1MOL    H10 1923   0.071   1.902   2.532
    1MOL    C00 1925   0.318   0.070   3.211
    1MOL    C01 1926   0.409   0.066   3.106
    1MOL    C02 1927   0.201   0.140   3.194
    1MOL    C03 1928   0.331   0.004   3.340
    1MOL    C04 1929   0.392   0.144   2.984
    1MOL    H05 1930   0.507   0.013   3.108
    1MOL    C06 1931   0.183   0.209   3.070
    1MOL    C07 1932   0.116   0.142   3.299
    1MOL    C08 1933   0.243  -0.000   3.445
    1MOL    H09 1934   0.419  -0.056   3.354
    1MOL    C0A 1935   0.491   0.160   2.881
    1MOL    C0B 1936   0.269   0.209   2.959
    1MOL    H0C 1937   0.091   0.269   3.063
    1MOL    H0D 1938   0.037   0.206   3.291
    1MOL    C0E 1939   0.130   0.076   3.422
    1MOL    C0F 1940   0.249  -0.070   3.567
    1MOL    C0G 1941   0.485   0.237   2.760
    1MOL    H0H 1942   0.580   0.101   2.892
    1MOL    C0I 1943   0.254   0.272   2.836
    1MOL    C0J 1944   0.033   0.074   3.526
    1MOL    C0K 1945   0.147  -0.079   3.664
    1MOL    H0M 1946   0.335  -0.126   3.588
    1MOL    C0N 1947   0.356   0.290   2.742
    1MOL    H0O 1948   0.559   0.243   2.688
    1MOL    H0P 1949   0.167   0.333   2.825
    1MOL    H0Q 1950  -0.049   0.142   3.508
    1MOL    C0R 1951   0.029  -0.006   3.643
    1MOL    C0S 1952   0.157  -0.159   3.778
    1MOL    H0T 1953   0.326   0.345   2.658
    1MOL    C0U 1954  -0.078  -0.020   3.738
    1MOL    C0V 1955   0.056  -0.173   3.876
    1MOL    H0W 1956   0.248  -0.220   3.796
    1MOL    C0X 1957  -0.068  -0.107   3.852
    1MOL    H0Y 1958  -0.164   0.039   3.716
    1MOL    H0Z 1959   0.073  -0.226   3.971
    1MOL    H10 1960  -0.154  -0.132   3.908
    1MOL    C00 1962   0.236   1.720   0.555
    1MOL    C01 1963   0.136   1.704   0.655
    1MOL    C02 1964   0.361   1.661   0.577
    1MOL    C03 1965   0.225   1.792   0.429
    1MOL    C04 1966   0.157   1.645   0.781
    1MOL    H05 1967   0.036   1.742   0.635
    1MOL    C06 1968   0.373   1.595   0.696
    1MOL    C07 1969   0.454   1.667   0.475
    1MOL    C08 1970   0.325   1.796   0.326
    1MOL    H09 1971   0.136   1.848   0.405
    1MOL    C0A 1972   0.065   1.636   0.884
    1MOL    C0B 1973   0.285   1.591   0.803
    1MOL    H0C 1974   0.458   1.529   0.719
    1MOL    H0D 1975   0.540   1.605   0.493
    1MOL    C0E 1976   0.446   1.735   0.348
    1MOL    C0F 1977   0.313   1.858   0.193
    1MOL    C0G 1978   0.083   1.563   1.005
    1MOL    H0H 1979  -0.026   1.697   0.870
    1MOL    C0I 1980   0.312   1.526   0.927
    1MOL    C0J 1981   0.535   1.735   0.239
    1MOL    C0K 1982   0.411   1.862   0.087
    1MOL    H0M 1983   0.225   1.920   0.183
    1MOL    C0N 1984   0.209   1.499   1.020
    1MOL    H0O 1985   0.019   1.576   1.094
    1MOL    H0P 1986   0.403   1.474   0.947
    1MOL    H0Q 1987   0.619   1.674   0.262
    1MOL    C0R 1988   0.531   1.796   0.111
    1MOL    C0S 1989   0.400   1.940  -0.031
    1MOL    H0T 1990   0.249   1.445   1.104
    1MOL    C0U 1991   0.636   1.806   0.010
    1MOL    C0V 1992   0.494   1.940  -0.130
    1MOL    H0W 1993   0.305   1.991  -0.052
    1MOL    C0X 1994   0.610   1.871  -0.113
    1MOL    H0Y 1995   0.736   1.765   0.033
    1MOL    H0Z 1996   0.468   1.992  -0.223
    1MOL    H10 1997   0.676   1.856  -0.191
   1.89620   2.32015   4.24736   0.00000   0.00000   0.22259   0.00000   0.15154   0.99026
