Generated by cif2gro.py
 9000
    1PEN     C1    1   0.922   1.846   4.879
    1PEN     C2    2   0.824   1.847   4.980
    1PEN     C3    3   1.047   1.773   4.902
    1PEN     C4    4   0.905   1.914   4.757
    1PEN     C5    5   0.843   1.781   5.101
    1PEN     H6    6   0.742   1.894   4.966
    1PEN     C7    7   1.064   1.706   5.024
    1PEN     C8    8   1.144   1.773   4.801
    1PEN     C9    9   1.003   1.914   4.657
    1PEN    H10   10   0.824   1.962   4.744
    1PEN    C11   11   0.745   1.783   5.204
    1PEN    C12   12   0.967   1.708   5.123
    1PEN    H13   13   1.144   1.657   5.039
    1PEN    H14   14   1.226   1.726   4.814
    1PEN    C15   15   1.127   1.841   4.680
    1PEN    C16   16   0.986   1.981   4.534
    1PEN    C17   17   0.766   1.718   5.321
    1PEN    H18   18   0.664   1.829   5.191
    1PEN    C19   19   0.984   1.642   5.249
    1PEN    C20   20   1.226   1.840   4.578
    1PEN    C21   21   1.083   1.979   4.435
    1PEN    H22   22   0.906   2.030   4.519
    1PEN    C23   23   0.888   1.647   5.344
    1PEN    H24   24   0.699   1.721   5.389
    1PEN    H25   25   1.064   1.594   5.265
    1PEN    H26   26   1.307   1.794   4.593
    1PEN    C27   27   1.206   1.906   4.458
    1PEN    C28   28   1.066   2.045   4.310
    1PEN    H29   29   0.902   1.602   5.427
    1PEN    C30   30   1.305   1.905   4.354
    1PEN    C31   31   1.162   2.040   4.214
    1PEN    H32   32   0.986   2.093   4.294
    1PEN    C33   33   1.283   1.969   4.237
    1PEN    H34   34   1.386   1.858   4.368
    1PEN    H35   35   1.148   2.085   4.131
    1PEN    H36   36   1.350   1.967   4.170
    2PEN     C1   37   1.077   1.513   3.274
    2PEN     C2   38   1.176   1.513   3.172
    2PEN     C3   39   0.953   1.586   3.251
    2PEN     C4   40   1.094   1.445   3.396
    2PEN     C5   41   1.156   1.579   3.052
    2PEN     H6   42   1.257   1.466   3.187
    2PEN     C7   43   0.936   1.654   3.129
    2PEN     C8   44   0.855   1.587   3.352
    2PEN     C9   45   0.997   1.446   3.496
    2PEN    H10   46   1.176   1.398   3.409
    2PEN    C11   47   1.254   1.577   2.949
    2PEN    C12   48   1.033   1.651   3.030
    2PEN    H13   49   0.856   1.703   3.114
    2PEN    H14   50   0.774   1.634   3.338
    2PEN    C15   51   0.872   1.519   3.473
    2PEN    C16   52   1.014   1.378   3.619
    2PEN    C17   53   1.233   1.641   2.831
    2PEN    H18   54   1.336   1.530   2.962
    2PEN    C19   55   1.016   1.717   2.904
    2PEN    C20   56   0.774   1.519   3.575
    2PEN    C21   57   0.916   1.381   3.717
    2PEN    H22   58   1.094   1.329   3.634
    2PEN    C23   59   1.112   1.713   2.809
    2PEN    H24   60   1.300   1.639   2.764
    2PEN    H25   61   0.935   1.765   2.888
    2PEN    H26   62   0.692   1.566   3.560
    2PEN    C27   63   0.793   1.453   3.695
    2PEN    C28   64   0.934   1.315   3.843
    2PEN    H29   65   1.098   1.757   2.726
    2PEN    C30   66   0.695   1.455   3.799
    2PEN    C31   67   0.838   1.319   3.939
    2PEN    H32   68   1.014   1.267   3.859
    2PEN    C33   69   0.716   1.391   3.916
    2PEN    H34   70   0.613   1.502   3.785
    2PEN    H35   71   0.852   1.275   4.022
    2PEN    H36   72   0.649   1.393   3.983
    3PEN     C1   73   0.822   1.191   2.067
    3PEN     C2   74   0.724   1.191   2.169
    3PEN     C3   75   0.946   1.118   2.090
    3PEN     C4   76   0.805   1.259   1.946
    3PEN     C5   77   0.743   1.125   2.289
    3PEN     H6   78   0.642   1.238   2.155
    3PEN     C7   79   0.964   1.050   2.213
    3PEN     C8   80   1.044   1.118   1.990
    3PEN     C9   81   0.903   1.258   1.846
    3PEN    H10   82   0.724   1.306   1.933
    3PEN    C11   83   0.645   1.127   2.393
    3PEN    C12   84   0.866   1.053   2.312
    3PEN    H13   85   1.044   1.002   2.228
    3PEN    H14   86   1.125   1.070   2.003
    3PEN    C15   87   1.027   1.186   1.869
    3PEN    C16   88   0.886   1.326   1.723
    3PEN    C17   89   0.666   1.063   2.510
    3PEN    H18   90   0.563   1.174   2.379
    3PEN    C19   91   0.883   0.987   2.437
    3PEN    C20   92   1.125   1.185   1.767
    3PEN    C21   93   0.983   1.323   1.624
    3PEN    H22   94   0.805   1.375   1.708
    3PEN    C23   95   0.788   0.991   2.533
    3PEN    H24   96   0.599   1.065   2.578
    3PEN    H25   97   0.964   0.939   2.454
    3PEN    H26   98   1.207   1.138   1.781
    3PEN    C27   99   1.106   1.251   1.647
    3PEN    C28  100   0.966   1.389   1.499
    3PEN    H29  101   0.802   0.947   2.616
    3PEN    C30  102   1.204   1.249   1.543
    3PEN    C31  103   1.061   1.385   1.403
    3PEN    H32  104   0.885   1.437   1.482
    3PEN    C33  105   1.183   1.314   1.426
    3PEN    H34  106   1.286   1.202   1.557
    3PEN    H35  107   1.048   1.430   1.320
    3PEN    H36  108   1.250   1.311   1.358
    4PEN     C1  109   0.896   1.959   2.067
    4PEN     C2  110   0.797   1.959   2.169
    4PEN     C3  111   1.020   1.886   2.090
    4PEN     C4  112   0.879   2.027   1.946
    4PEN     C5  113   0.817   1.893   2.289
    4PEN     H6  114   0.716   2.006   2.155
    4PEN     C7  115   1.037   1.818   2.213
    4PEN     C8  116   1.118   1.885   1.990
    4PEN     C9  117   0.976   2.026   1.846
    4PEN    H10  118   0.797   2.074   1.933
    4PEN    C11  119   0.718   1.895   2.393
    4PEN    C12  120   0.940   1.821   2.312
    4PEN    H13  121   1.117   1.769   2.228
    4PEN    H14  122   1.199   1.838   2.003
    4PEN    C15  123   1.101   1.953   1.869
    4PEN    C16  124   0.959   2.094   1.723
    4PEN    C17  125   0.739   1.831   2.510
    4PEN    H18  126   0.637   1.942   2.379
    4PEN    C19  127   0.957   1.755   2.437
    4PEN    C20  128   1.199   1.953   1.767
    4PEN    C21  129   1.056   2.091   1.624
    4PEN    H22  130   0.879   2.143   1.708
    4PEN    C23  131   0.861   1.759   2.533
    4PEN    H24  132   0.673   1.833   2.578
    4PEN    H25  133   1.037   1.707   2.454
    4PEN    H26  134   1.280   1.906   1.781
    4PEN    C27  135   1.179   2.019   1.647
    4PEN    C28  136   1.039   2.157   1.499
    4PEN    H29  137   0.875   1.715   2.616
    4PEN    C30  138   1.278   2.017   1.543
    4PEN    C31  139   1.135   2.153   1.403
    4PEN    H32  140   0.959   2.205   1.482
    4PEN    C33  141   1.257   2.081   1.426
    4PEN    H34  142   1.359   1.970   1.557
    4PEN    H35  143   1.121   2.197   1.320
    4PEN    H36  144   1.323   2.079   1.358
    5PEN     C1  145   1.321   4.257   1.869
    5PEN     C2  146   1.420   4.256   1.767
    5PEN     C3  147   1.197   4.330   1.846
    5PEN     C4  148   1.338   4.189   1.990
    5PEN     C5  149   1.400   4.322   1.647
    5PEN     H6  150   1.501   4.210   1.781
    5PEN     C7  151   1.180   4.398   1.723
    5PEN     C8  152   1.099   4.330   1.946
    5PEN     C9  153   1.241   4.189   2.090
    5PEN    H10  154   1.420   4.142   2.003
    5PEN    C11  155   1.499   4.321   1.543
    5PEN    C12  156   1.277   4.395   1.624
    5PEN    H13  157   1.100   4.446   1.708
    5PEN    H14  158   1.018   4.378   1.933
    5PEN    C15  159   1.117   4.262   2.067
    5PEN    C16  160   1.258   4.122   2.213
    5PEN    C17  161   1.478   4.385   1.426
    5PEN    H18  162   1.580   4.274   1.557
    5PEN    C19  163   1.260   4.461   1.499
    5PEN    C20  164   1.018   4.263   2.169
    5PEN    C21  165   1.161   4.125   2.312
    5PEN    H22  166   1.338   4.073   2.228
    5PEN    C23  167   1.356   4.457   1.403
    5PEN    H24  168   1.544   4.383   1.358
    5PEN    H25  169   1.180   4.509   1.482
    5PEN    H26  170   0.937   4.310   2.155
    5PEN    C27  171   1.038   4.197   2.289
    5PEN    C28  172   1.178   4.059   2.437
    5PEN    H29  173   1.342   4.501   1.320
    5PEN    C30  174   0.939   4.199   2.393
    5PEN    C31  175   1.082   4.063   2.533
    5PEN    H32  176   1.258   4.010   2.454
    5PEN    C33  177   0.960   4.134   2.510
    5PEN    H34  178   0.858   4.246   2.379
    5PEN    H35  179   1.096   4.018   2.616
    5PEN    H36  180   0.894   4.137   2.578
    6PEN     C1  181   0.969   2.727   2.067
    6PEN     C2  182   0.871   2.727   2.169
    6PEN     C3  183   1.094   2.654   2.090
    6PEN     C4  184   0.952   2.795   1.946
    6PEN     C5  185   0.890   2.661   2.289
    6PEN     H6  186   0.789   2.774   2.155
    6PEN     C7  187   1.111   2.586   2.213
    6PEN     C8  188   1.191   2.653   1.990
    6PEN     C9  189   1.050   2.794   1.846
    6PEN    H10  190   0.871   2.842   1.933
    6PEN    C11  191   0.792   2.663   2.393
    6PEN    C12  192   1.013   2.589   2.312
    6PEN    H13  193   1.191   2.537   2.228
    6PEN    H14  194   1.273   2.606   2.003
    6PEN    C15  195   1.174   2.721   1.869
    6PEN    C16  196   1.033   2.862   1.723
    6PEN    C17  197   0.813   2.599   2.510
    6PEN    H18  198   0.711   2.710   2.379
    6PEN    C19  199   1.031   2.523   2.437
    6PEN    C20  200   1.273   2.721   1.767
    6PEN    C21  201   1.130   2.859   1.624
    6PEN    H22  202   0.953   2.911   1.708
    6PEN    C23  203   0.935   2.527   2.533
    6PEN    H24  204   0.746   2.601   2.578
    6PEN    H25  205   1.111   2.475   2.454
    6PEN    H26  206   1.354   2.674   1.781
    6PEN    C27  207   1.253   2.787   1.647
    6PEN    C28  208   1.113   2.925   1.499
    6PEN    H29  209   0.949   2.483   2.616
    6PEN    C30  210   1.352   2.785   1.543
    6PEN    C31  211   1.209   2.921   1.403
    6PEN    H32  212   1.033   2.973   1.482
    6PEN    C33  213   1.330   2.849   1.426
    6PEN    H34  214   1.433   2.738   1.557
    6PEN    H35  215   1.195   2.965   1.320
    6PEN    H36  216   1.397   2.847   1.358
    7PEN     C1  217   1.124   2.394   0.463
    7PEN     C2  218   1.223   2.393   0.361
    7PEN     C3  219   1.000   2.466   0.440
    7PEN     C4  220   1.141   2.326   0.584
    7PEN     C5  221   1.203   2.459   0.241
    7PEN     H6  222   1.304   2.346   0.376
    7PEN     C7  223   0.983   2.534   0.317
    7PEN     C8  224   0.902   2.467   0.540
    7PEN     C9  225   1.044   2.326   0.685
    7PEN    H10  226   1.223   2.278   0.597
    7PEN    C11  227   1.301   2.457   0.137
    7PEN    C12  228   1.080   2.531   0.218
    7PEN    H13  229   0.903   2.583   0.302
    7PEN    H14  230   0.821   2.514   0.527
    7PEN    C15  231   0.919   2.399   0.662
    7PEN    C16  232   1.061   2.258   0.807
    7PEN    C17  233   1.280   2.522   0.020
    7PEN    H18  234   1.383   2.410   0.151
    7PEN    C19  235   1.063   2.597   0.093
    7PEN    C20  236   0.821   2.399   0.763
    7PEN    C21  237   0.963   2.261   0.906
    7PEN    H22  238   1.141   2.210   0.822
    7PEN    C23  239   1.158   2.593  -0.003
    7PEN    H24  240   1.347   2.519  -0.048
    7PEN    H25  241   0.982   2.646   0.076
    7PEN    H26  242   0.739   2.446   0.749
    7PEN    C27  243   0.840   2.334   0.883
    7PEN    C28  244   0.981   2.195   1.031
    7PEN    H29  245   1.145   2.638  -0.086
    7PEN    C30  246   0.742   2.335   0.987
    7PEN    C31  247   0.885   2.199   1.127
    7PEN    H32  248   1.061   2.147   1.048
    7PEN    C33  249   0.763   2.271   1.104
    7PEN    H34  250   0.660   2.382   0.974
    7PEN    H35  251   0.899   2.155   1.210
    7PEN    H36  252   0.696   2.273   1.172
    8PEN     C1  253   1.070   3.382   4.879
    8PEN     C2  254   0.971   3.383   4.980
    8PEN     C3  255   1.194   3.309   4.902
    8PEN     C4  256   1.052   3.450   4.757
    8PEN     C5  257   0.991   3.317   5.101
    8PEN     H6  258   0.890   3.429   4.966
    8PEN     C7  259   1.211   3.241   5.024
    8PEN     C8  260   1.292   3.309   4.801
    8PEN     C9  261   1.150   3.450   4.657
    8PEN    H10  262   0.971   3.497   4.744
    8PEN    C11  263   0.892   3.318   5.204
    8PEN    C12  264   1.114   3.244   5.123
    8PEN    H13  265   1.291   3.193   5.039
    8PEN    H14  266   1.373   3.261   4.814
    8PEN    C15  267   1.274   3.377   4.680
    8PEN    C16  268   1.133   3.517   4.534
    8PEN    C17  269   0.913   3.254   5.321
    8PEN    H18  270   0.811   3.365   5.191
    8PEN    C19  271   1.131   3.178   5.249
    8PEN    C20  272   1.373   3.376   4.578
    8PEN    C21  273   1.230   3.514   4.435
    8PEN    H22  274   1.053   3.566   4.519
    8PEN    C23  275   1.035   3.182   5.344
    8PEN    H24  276   0.847   3.256   5.389
    8PEN    H25  277   1.211   3.130   5.265
    8PEN    H26  278   1.454   3.329   4.593
    8PEN    C27  279   1.353   3.442   4.458
    8PEN    C28  280   1.213   3.580   4.310
    8PEN    H29  281   1.049   3.138   5.427
    8PEN    C30  282   1.452   3.440   4.354
    8PEN    C31  283   1.309   3.576   4.214
    8PEN    H32  284   1.133   3.629   4.294
    8PEN    C33  285   1.431   3.505   4.237
    8PEN    H34  286   1.533   3.393   4.368
    8PEN    H35  287   1.295   3.621   4.131
    8PEN    H36  288   1.497   3.502   4.170
    9PEN     C1  289   1.120   3.710   6.284
    9PEN     C2  290   1.021   3.710   6.386
    9PEN     C3  291   1.244   3.637   6.307
    9PEN     C4  292   1.103   3.778   6.163
    9PEN     C5  293   1.041   3.644   6.506
    9PEN     H6  294   0.940   3.757   6.372
    9PEN     C7  295   1.261   3.569   6.430
    9PEN     C8  296   1.342   3.636   6.207
    9PEN     C9  297   1.200   3.777   6.063
    9PEN    H10  298   1.021   3.825   6.150
    9PEN    C11  299   0.942   3.646   6.610
    9PEN    C12  300   1.164   3.572   6.529
    9PEN    H13  301   1.341   3.520   6.445
    9PEN    H14  302   1.423   3.589   6.220
    9PEN    C15  303   1.325   3.704   6.086
    9PEN    C16  304   1.183   3.845   5.940
    9PEN    C17  305   0.963   3.582   6.727
    9PEN    H18  306   0.861   3.693   6.596
    9PEN    C19  307   1.181   3.506   6.654
    9PEN    C20  308   1.423   3.704   5.984
    9PEN    C21  309   1.280   3.842   5.841
    9PEN    H22  310   1.103   3.894   5.925
    9PEN    C23  311   1.085   3.510   6.750
    9PEN    H24  312   0.897   3.584   6.795
    9PEN    H25  313   1.261   3.458   6.671
    9PEN    H26  314   1.504   3.657   5.998
    9PEN    C27  315   1.403   3.770   5.864
    9PEN    C28  316   1.263   3.908   5.716
    9PEN    H29  317   1.099   3.466   6.833
    9PEN    C30  318   1.502   3.768   5.760
    9PEN    C31  319   1.359   3.904   5.620
    9PEN    H32  320   1.183   3.956   5.699
    9PEN    C33  321   1.481   3.832   5.643
    9PEN    H34  322   1.583   3.721   5.774
    9PEN    H35  323   1.345   3.948   5.537
    9PEN    H36  324   1.547   3.830   5.575
   10PEN     C1  325   1.043   3.495   2.067
   10PEN     C2  326   0.944   3.495   2.169
   10PEN     C3  327   1.167   3.422   2.090
   10PEN     C4  328   1.026   3.563   1.946
   10PEN     C5  329   0.964   3.429   2.289
   10PEN     H6  330   0.863   3.542   2.155
   10PEN     C7  331   1.184   3.354   2.213
   10PEN     C8  332   1.265   3.421   1.990
   10PEN     C9  333   1.123   3.562   1.846
   10PEN    H10  334   0.944   3.610   1.933
   10PEN    C11  335   0.866   3.431   2.393
   10PEN    C12  336   1.087   3.357   2.312
   10PEN    H13  337   1.264   3.305   2.228
   10PEN    H14  338   1.346   3.374   2.003
   10PEN    C15  339   1.248   3.489   1.869
   10PEN    C16  340   1.106   3.630   1.723
   10PEN    C17  341   0.887   3.366   2.510
   10PEN    H18  342   0.784   3.478   2.379
   10PEN    C19  343   1.104   3.291   2.437
   10PEN    C20  344   1.346   3.489   1.767
   10PEN    C21  345   1.204   3.627   1.624
   10PEN    H22  346   1.026   3.678   1.708
   10PEN    C23  347   1.009   3.295   2.533
   10PEN    H24  348   0.820   3.369   2.578
   10PEN    H25  349   1.185   3.243   2.454
   10PEN    H26  350   1.428   3.442   1.781
   10PEN    C27  351   1.327   3.555   1.647
   10PEN    C28  352   1.186   3.693   1.499
   10PEN    H29  353   1.022   3.250   2.616
   10PEN    C30  354   1.425   3.553   1.543
   10PEN    C31  355   1.282   3.689   1.403
   10PEN    H32  356   1.106   3.741   1.482
   10PEN    C33  357   1.404   3.617   1.426
   10PEN    H34  358   1.507   3.506   1.557
   10PEN    H35  359   1.268   3.733   1.320
   10PEN    H36  360   1.471   3.615   1.358
   11PEN     C1  361   1.298   3.817   3.274
   11PEN     C2  362   1.396   3.816   3.172
   11PEN     C3  363   1.174   3.890   3.251
   11PEN     C4  364   1.315   3.749   3.396
   11PEN     C5  365   1.377   3.882   3.052
   11PEN     H6  366   1.478   3.770   3.187
   11PEN     C7  367   1.156   3.957   3.129
   11PEN     C8  368   1.076   3.890   3.352
   11PEN     C9  369   1.217   3.749   3.496
   11PEN    H10  370   1.396   3.702   3.409
   11PEN    C11  371   1.475   3.881   2.949
   11PEN    C12  372   1.254   3.955   3.030
   11PEN    H13  373   1.076   4.006   3.114
   11PEN    H14  374   0.995   3.937   3.338
   11PEN    C15  375   1.093   3.822   3.473
   11PEN    C16  376   1.234   3.682   3.619
   11PEN    C17  377   1.454   3.945   2.831
   11PEN    H18  378   1.557   3.834   2.962
   11PEN    C19  379   1.237   4.021   2.904
   11PEN    C20  380   0.995   3.823   3.575
   11PEN    C21  381   1.137   3.684   3.717
   11PEN    H22  382   1.315   3.633   3.634
   11PEN    C23  383   1.332   4.016   2.809
   11PEN    H24  384   1.521   3.943   2.764
   11PEN    H25  385   1.156   4.069   2.888
   11PEN    H26  386   0.913   3.869   3.560
   11PEN    C27  387   1.014   3.757   3.695
   11PEN    C28  388   1.154   3.618   3.843
   11PEN    H29  389   1.318   4.061   2.726
   11PEN    C30  390   0.916   3.758   3.799
   11PEN    C31  391   1.059   3.623   3.939
   11PEN    H32  392   1.235   3.570   3.859
   11PEN    C33  393   0.937   3.694   3.916
   11PEN    H34  394   0.834   3.805   3.785
   11PEN    H35  395   1.072   3.578   4.022
   11PEN    H36  396   0.870   3.696   3.983
   12PEN     C1  397   1.193   4.478   6.284
   12PEN     C2  398   1.095   4.478   6.386
   12PEN     C3  399   1.318   4.405   6.307
   12PEN     C4  400   1.176   4.546   6.163
   12PEN     C5  401   1.114   4.412   6.506
   12PEN     H6  402   1.013   4.525   6.372
   12PEN     C7  403   1.335   4.337   6.430
   12PEN     C8  404   1.415   4.404   6.207
   12PEN     C9  405   1.274   4.545   6.063
   12PEN    H10  406   1.095   4.593   6.150
   12PEN    C11  407   1.016   4.414   6.610
   12PEN    C12  408   1.237   4.340   6.529
   12PEN    H13  409   1.415   4.288   6.445
   12PEN    H14  410   1.497   4.357   6.220
   12PEN    C15  411   1.398   4.472   6.086
   12PEN    C16  412   1.257   4.613   5.940
   12PEN    C17  413   1.037   4.349   6.727
   12PEN    H18  414   0.935   4.461   6.596
   12PEN    C19  415   1.255   4.274   6.654
   12PEN    C20  416   1.497   4.472   5.984
   12PEN    C21  417   1.354   4.610   5.841
   12PEN    H22  418   1.177   4.661   5.925
   12PEN    C23  419   1.159   4.278   6.750
   12PEN    H24  420   0.970   4.352   6.795
   12PEN    H25  421   1.335   4.226   6.671
   12PEN    H26  422   1.578   4.425   5.998
   12PEN    C27  423   1.477   4.538   5.864
   12PEN    C28  424   1.337   4.676   5.716
   12PEN    H29  425   1.173   4.234   6.833
   12PEN    C30  426   1.575   4.536   5.760
   12PEN    C31  427   1.433   4.672   5.620
   12PEN    H32  428   1.257   4.724   5.699
   12PEN    C33  429   1.554   4.600   5.643
   12PEN    H34  430   1.657   4.489   5.774
   12PEN    H35  431   1.419   4.716   5.537
   12PEN    H36  432   1.621   4.598   5.575
   13PEN     C1  433   1.198   3.161   0.463
   13PEN     C2  434   1.296   3.161   0.361
   13PEN     C3  435   1.073   3.234   0.440
   13PEN     C4  436   1.215   3.093   0.584
   13PEN     C5  437   1.277   3.227   0.241
   13PEN     H6  438   1.378   3.114   0.376
   13PEN     C7  439   1.056   3.302   0.317
   13PEN     C8  440   0.976   3.235   0.540
   13PEN     C9  441   1.117   3.094   0.685
   13PEN    H10  442   1.296   3.046   0.597
   13PEN    C11  443   1.375   3.225   0.137
   13PEN    C12  444   1.153   3.299   0.218
   13PEN    H13  445   0.976   3.351   0.302
   13PEN    H14  446   0.894   3.282   0.527
   13PEN    C15  447   0.993   3.167   0.662
   13PEN    C16  448   1.134   3.026   0.807
   13PEN    C17  449   1.354   3.290   0.020
   13PEN    H18  450   1.456   3.178   0.151
   13PEN    C19  451   1.136   3.365   0.093
   13PEN    C20  452   0.894   3.167   0.763
   13PEN    C21  453   1.037   3.029   0.906
   13PEN    H22  454   1.214   2.977   0.822
   13PEN    C23  455   1.232   3.361  -0.003
   13PEN    H24  456   1.421   3.287  -0.048
   13PEN    H25  457   1.056   3.413   0.076
   13PEN    H26  458   0.813   3.214   0.749
   13PEN    C27  459   0.914   3.101   0.883
   13PEN    C28  460   1.054   2.963   1.031
   13PEN    H29  461   1.218   3.405  -0.086
   13PEN    C30  462   0.815   3.103   0.987
   13PEN    C31  463   0.958   2.967   1.127
   13PEN    H32  464   1.134   2.915   1.048
   13PEN    C33  465   0.837   3.039   1.104
   13PEN    H34  466   0.734   3.150   0.974
   13PEN    H35  467   0.972   2.923   1.210
   13PEN    H36  468   0.770   3.041   1.172
   14PEN     C1  469   1.143   4.150   4.879
   14PEN     C2  470   1.045   4.150   4.980
   14PEN     C3  471   1.268   4.077   4.902
   14PEN     C4  472   1.126   4.218   4.757
   14PEN     C5  473   1.064   4.084   5.101
   14PEN     H6  474   0.963   4.197   4.966
   14PEN     C7  475   1.285   4.009   5.024
   14PEN     C8  476   1.365   4.076   4.801
   14PEN     C9  477   1.224   4.217   4.657
   14PEN    H10  478   1.045   4.265   4.744
   14PEN    C11  479   0.966   4.086   5.204
   14PEN    C12  480   1.187   4.012   5.123
   14PEN    H13  481   1.365   3.961   5.039
   14PEN    H14  482   1.446   4.029   4.814
   14PEN    C15  483   1.348   4.144   4.680
   14PEN    C16  484   1.207   4.285   4.534
   14PEN    C17  485   0.987   4.022   5.321
   14PEN    H18  486   0.884   4.133   5.191
   14PEN    C19  487   1.205   3.946   5.249
   14PEN    C20  488   1.447   4.144   4.578
   14PEN    C21  489   1.304   4.282   4.435
   14PEN    H22  490   1.126   4.334   4.519
   14PEN    C23  491   1.109   3.950   5.344
   14PEN    H24  492   0.920   4.024   5.389
   14PEN    H25  493   1.285   3.898   5.265
   14PEN    H26  494   1.528   4.097   4.593
   14PEN    C27  495   1.427   4.210   4.458
   14PEN    C28  496   1.287   4.348   4.310
   14PEN    H29  497   1.123   3.906   5.427
   14PEN    C30  498   1.525   4.208   4.354
   14PEN    C31  499   1.382   4.344   4.214
   14PEN    H32  500   1.206   4.396   4.294
   14PEN    C33  501   1.504   4.273   4.237
   14PEN    H34  502   1.607   4.161   4.368
   14PEN    H35  503   1.369   4.389   4.131
   14PEN    H36  504   1.571   4.270   4.170
   15PEN     C1  505   0.977   0.858   0.463
   15PEN     C2  506   1.075   0.857   0.361
   15PEN     C3  507   0.852   0.931   0.440
   15PEN     C4  508   0.994   0.790   0.584
   15PEN     C5  509   1.056   0.923   0.241
   15PEN     H6  510   1.157   0.811   0.376
   15PEN     C7  511   0.835   0.998   0.317
   15PEN     C8  512   0.755   0.931   0.540
   15PEN     C9  513   0.896   0.790   0.685
   15PEN    H10  514   1.075   0.743   0.597
   15PEN    C11  515   1.154   0.922   0.137
   15PEN    C12  516   0.933   0.996   0.218
   15PEN    H13  517   0.755   1.047   0.302
   15PEN    H14  518   0.674   0.979   0.527
   15PEN    C15  519   0.772   0.863   0.662
   15PEN    C16  520   0.913   0.723   0.807
   15PEN    C17  521   1.133   0.986   0.020
   15PEN    H18  522   1.236   0.875   0.151
   15PEN    C19  523   0.915   1.062   0.093
   15PEN    C20  524   0.673   0.864   0.763
   15PEN    C21  525   0.816   0.725   0.906
   15PEN    H22  526   0.994   0.674   0.822
   15PEN    C23  527   1.011   1.057  -0.003
   15PEN    H24  528   1.200   0.984  -0.048
   15PEN    H25  529   0.835   1.110   0.076
   15PEN    H26  530   0.592   0.911   0.749
   15PEN    C27  531   0.693   0.798   0.883
   15PEN    C28  532   0.833   0.659   1.031
   15PEN    H29  533   0.997   1.102  -0.086
   15PEN    C30  534   0.595   0.799   0.987
   15PEN    C31  535   0.738   0.664   1.127
   15PEN    H32  536   0.914   0.611   1.048
   15PEN    C33  537   0.616   0.735   1.104
   15PEN    H34  538   0.513   0.846   0.974
   15PEN    H35  539   0.751   0.619   1.210
   15PEN    H36  540   0.549   0.737   1.172
   16PEN     C1  541   0.972   2.174   6.284
   16PEN     C2  542   0.874   2.174   6.386
   16PEN     C3  543   1.097   2.101   6.307
   16PEN     C4  544   0.955   2.242   6.163
   16PEN     C5  545   0.894   2.109   6.506
   16PEN     H6  546   0.793   2.221   6.372
   16PEN     C7  547   1.114   2.033   6.430
   16PEN     C8  548   1.194   2.101   6.207
   16PEN     C9  549   1.053   2.241   6.063
   16PEN    H10  550   0.874   2.289   6.150
   16PEN    C11  551   0.795   2.110   6.610
   16PEN    C12  552   1.017   2.036   6.529
   16PEN    H13  553   1.194   1.985   6.445
   16PEN    H14  554   1.276   2.053   6.220
   16PEN    C15  555   1.177   2.169   6.086
   16PEN    C16  556   1.036   2.309   5.940
   16PEN    C17  557   0.816   2.046   6.727
   16PEN    H18  558   0.714   2.157   6.596
   16PEN    C19  559   1.034   1.970   6.654
   16PEN    C20  560   1.276   2.168   5.984
   16PEN    C21  561   1.133   2.306   5.841
   16PEN    H22  562   0.956   2.358   5.925
   16PEN    C23  563   0.938   1.974   6.750
   16PEN    H24  564   0.750   2.048   6.795
   16PEN    H25  565   1.114   1.922   6.671
   16PEN    H26  566   1.357   2.121   5.998
   16PEN    C27  567   1.256   2.234   5.864
   16PEN    C28  568   1.116   2.372   5.716
   16PEN    H29  569   0.952   1.930   6.833
   16PEN    C30  570   1.355   2.232   5.760
   16PEN    C31  571   1.212   2.368   5.620
   16PEN    H32  572   1.036   2.421   5.699
   16PEN    C33  573   1.334   2.297   5.643
   16PEN    H34  574   1.436   2.185   5.774
   16PEN    H35  575   1.198   2.413   5.537
   16PEN    H36  576   1.400   2.294   5.575
   17PEN     C1  577   1.050   1.626   0.463
   17PEN     C2  578   1.149   1.625   0.361
   17PEN     C3  579   0.926   1.699   0.440
   17PEN     C4  580   1.068   1.558   0.584
   17PEN     C5  581   1.129   1.691   0.241
   17PEN     H6  582   1.230   1.578   0.376
   17PEN     C7  583   0.909   1.766   0.317
   17PEN     C8  584   0.828   1.699   0.540
   17PEN     C9  585   0.970   1.558   0.685
   17PEN    H10  586   1.149   1.510   0.597
   17PEN    C11  587   1.228   1.689   0.137
   17PEN    C12  588   1.006   1.764   0.218
   17PEN    H13  589   0.829   1.815   0.302
   17PEN    H14  590   0.747   1.746   0.527
   17PEN    C15  591   0.846   1.631   0.662
   17PEN    C16  592   0.987   1.491   0.807
   17PEN    C17  593   1.207   1.754   0.020
   17PEN    H18  594   1.309   1.643   0.151
   17PEN    C19  595   0.989   1.830   0.093
   17PEN    C20  596   0.747   1.632   0.763
   17PEN    C21  597   0.890   1.493   0.906
   17PEN    H22  598   1.067   1.442   0.822
   17PEN    C23  599   1.085   1.825  -0.003
   17PEN    H24  600   1.273   1.751  -0.048
   17PEN    H25  601   0.909   1.878   0.076
   17PEN    H26  602   0.666   1.678   0.749
   17PEN    C27  603   0.767   1.566   0.883
   17PEN    C28  604   0.907   1.427   1.031
   17PEN    H29  605   1.071   1.870  -0.086
   17PEN    C30  606   0.668   1.567   0.987
   17PEN    C31  607   0.811   1.432   1.127
   17PEN    H32  608   0.987   1.379   1.048
   17PEN    C33  609   0.689   1.503   1.104
   17PEN    H34  610   0.587   1.614   0.974
   17PEN    H35  611   0.825   1.387   1.210
   17PEN    H36  612   0.623   1.505   1.172
   18PEN     C1  613   0.996   2.614   4.879
   18PEN     C2  614   0.897   2.615   4.980
   18PEN     C3  615   1.120   2.541   4.902
   18PEN     C4  616   0.979   2.682   4.757
   18PEN     C5  617   0.917   2.549   5.101
   18PEN     H6  618   0.816   2.661   4.966
   18PEN     C7  619   1.137   2.474   5.024
   18PEN     C8  620   1.218   2.541   4.801
   18PEN     C9  621   1.076   2.682   4.657
   18PEN    H10  622   0.897   2.729   4.744
   18PEN    C11  623   0.819   2.550   5.204
   18PEN    C12  624   1.040   2.476   5.123
   18PEN    H13  625   1.217   2.425   5.039
   18PEN    H14  626   1.299   2.493   4.814
   18PEN    C15  627   1.201   2.609   4.680
   18PEN    C16  628   1.059   2.749   4.534
   18PEN    C17  629   0.840   2.486   5.321
   18PEN    H18  630   0.737   2.597   5.191
   18PEN    C19  631   1.057   2.410   5.249
   18PEN    C20  632   1.299   2.608   4.578
   18PEN    C21  633   1.157   2.747   4.435
   18PEN    H22  634   0.979   2.798   4.519
   18PEN    C23  635   0.962   2.415   5.344
   18PEN    H24  636   0.773   2.488   5.389
   18PEN    H25  637   1.138   2.362   5.265
   18PEN    H26  638   1.381   2.561   4.593
   18PEN    C27  639   1.280   2.674   4.458
   18PEN    C28  640   1.139   2.813   4.310
   18PEN    H29  641   0.975   2.370   5.427
   18PEN    C30  642   1.378   2.672   4.354
   18PEN    C31  643   1.235   2.808   4.214
   18PEN    H32  644   1.059   2.861   4.294
   18PEN    C33  645   1.357   2.737   4.237
   18PEN    H34  646   1.460   2.626   4.368
   18PEN    H35  647   1.221   2.853   4.131
   18PEN    H36  648   1.424   2.735   4.170
   19PEN     C1  649   1.046   2.942   6.284
   19PEN     C2  650   0.948   2.942   6.386
   19PEN     C3  651   1.170   2.869   6.307
   19PEN     C4  652   1.029   3.010   6.163
   19PEN     C5  653   0.967   2.876   6.506
   19PEN     H6  654   0.866   2.989   6.372
   19PEN     C7  655   1.187   2.801   6.430
   19PEN     C8  656   1.268   2.868   6.207
   19PEN     C9  657   1.127   3.009   6.063
   19PEN    H10  658   0.948   3.057   6.150
   19PEN    C11  659   0.869   2.878   6.610
   19PEN    C12  660   1.090   2.804   6.529
   19PEN    H13  661   1.268   2.753   6.445
   19PEN    H14  662   1.349   2.821   6.220
   19PEN    C15  663   1.251   2.936   6.086
   19PEN    C16  664   1.110   3.077   5.940
   19PEN    C17  665   0.890   2.814   6.727
   19PEN    H18  666   0.787   2.925   6.596
   19PEN    C19  667   1.107   2.738   6.654
   19PEN    C20  668   1.349   2.936   5.984
   19PEN    C21  669   1.207   3.074   5.841
   19PEN    H22  670   1.029   3.126   5.925
   19PEN    C23  671   1.012   2.742   6.750
   19PEN    H24  672   0.823   2.816   6.795
   19PEN    H25  673   1.188   2.690   6.671
   19PEN    H26  674   1.431   2.889   5.998
   19PEN    C27  675   1.330   3.002   5.864
   19PEN    C28  676   1.190   3.140   5.716
   19PEN    H29  677   1.025   2.698   6.833
   19PEN    C30  678   1.428   3.000   5.760
   19PEN    C31  679   1.285   3.136   5.620
   19PEN    H32  680   1.109   3.188   5.699
   19PEN    C33  681   1.407   3.065   5.643
   19PEN    H34  682   1.510   2.953   5.774
   19PEN    H35  683   1.272   3.180   5.537
   19PEN    H36  684   1.474   3.062   5.575
   20PEN     C1  685   1.151   2.281   3.274
   20PEN     C2  686   1.249   2.281   3.172
   20PEN     C3  687   1.026   2.354   3.251
   20PEN     C4  688   1.168   2.213   3.396
   20PEN     C5  689   1.230   2.346   3.052
   20PEN     H6  690   1.331   2.234   3.187
   20PEN     C7  691   1.009   2.422   3.129
   20PEN     C8  692   0.929   2.354   3.352
   20PEN     C9  693   1.070   2.214   3.496
   20PEN    H10  694   1.249   2.166   3.409
   20PEN    C11  695   1.328   2.345   2.949
   20PEN    C12  696   1.107   2.419   3.030
   20PEN    H13  697   0.929   2.470   3.114
   20PEN    H14  698   0.847   2.402   3.338
   20PEN    C15  699   0.946   2.286   3.473
   20PEN    C16  700   1.087   2.146   3.619
   20PEN    C17  701   1.307   2.409   2.831
   20PEN    H18  702   1.409   2.298   2.962
   20PEN    C19  703   1.089   2.485   2.904
   20PEN    C20  704   0.847   2.287   3.575
   20PEN    C21  705   0.990   2.149   3.717
   20PEN    H22  706   1.167   2.097   3.634
   20PEN    C23  707   1.185   2.481   2.809
   20PEN    H24  708   1.374   2.407   2.764
   20PEN    H25  709   1.009   2.533   2.888
   20PEN    H26  710   0.766   2.334   3.560
   20PEN    C27  711   0.867   2.221   3.695
   20PEN    C28  712   1.007   2.083   3.843
   20PEN    H29  713   1.171   2.525   2.726
   20PEN    C30  714   0.768   2.223   3.799
   20PEN    C31  715   0.911   2.087   3.939
   20PEN    H32  716   1.087   2.035   3.859
   20PEN    C33  717   0.790   2.158   3.916
   20PEN    H34  718   0.687   2.270   3.785
   20PEN    H35  719   0.925   2.042   4.022
   20PEN    H36  720   0.723   2.161   3.983
   21PEN     C1  721   1.167   4.590   3.473
   21PEN     C2  722   1.068   4.591   3.575
   21PEN     C3  723   1.291   4.517   3.496
   21PEN     C4  724   1.150   4.658   3.352
   21PEN     C5  725   1.088   4.525   3.695
   21PEN     H6  726   0.987   4.637   3.560
   21PEN     C7  727   1.308   4.449   3.619
   21PEN     C8  728   1.389   4.517   3.396
   21PEN     C9  729   1.247   4.658   3.251
   21PEN    H10  730   1.068   4.705   3.338
   21PEN    C11  731   0.989   4.526   3.799
   21PEN    C12  732   1.211   4.452   3.717
   21PEN    H13  733   1.388   4.401   3.634
   21PEN    H14  734   1.470   4.469   3.409
   21PEN    C15  735   1.372   4.585   3.274
   21PEN    C16  736   1.230   4.725   3.129
   21PEN    C17  737   1.010   4.462   3.916
   21PEN    H18  738   0.908   4.573   3.785
   21PEN    C19  739   1.228   4.386   3.843
   21PEN    C20  740   1.470   4.584   3.172
   21PEN    C21  741   1.327   4.723   3.030
   21PEN    H22  742   1.150   4.774   3.114
   21PEN    C23  743   1.132   4.391   3.939
   21PEN    H24  744   0.944   4.464   3.983
   21PEN    H25  745   1.308   4.338   3.859
   21PEN    H26  746   1.551   4.537   3.187
   21PEN    C27  747   1.450   4.650   3.052
   21PEN    C28  748   1.310   4.788   2.904
   21PEN    H29  749   1.146   4.346   4.022
   21PEN    C30  750   1.549   4.648   2.949
   21PEN    C31  751   1.406   4.784   2.809
   21PEN    H32  752   1.230   4.837   2.888
   21PEN    C33  753   1.528   4.713   2.831
   21PEN    H34  754   1.630   4.601   2.962
   21PEN    H35  755   1.392   4.829   2.726
   21PEN    H36  756   1.594   4.710   2.764
   22PEN     C1  757   1.217   4.918   4.879
   22PEN     C2  758   1.118   4.918   4.980
   22PEN     C3  759   1.341   4.845   4.902
   22PEN     C4  760   1.200   4.986   4.757
   22PEN     C5  761   1.138   4.852   5.101
   22PEN     H6  762   1.037   4.965   4.966
   22PEN     C7  763   1.358   4.777   5.024
   22PEN     C8  764   1.439   4.844   4.801
   22PEN     C9  765   1.297   4.985   4.657
   22PEN    H10  766   1.118   5.033   4.744
   22PEN    C11  767   1.039   4.854   5.204
   22PEN    C12  768   1.261   4.780   5.123
   22PEN    H13  769   1.438   4.728   5.039
   22PEN    H14  770   1.520   4.797   4.814
   22PEN    C15  771   1.422   4.912   4.680
   22PEN    C16  772   1.280   5.053   4.534
   22PEN    C17  773   1.061   4.790   5.321
   22PEN    H18  774   0.958   4.901   5.191
   22PEN    C19  775   1.278   4.714   5.249
   22PEN    C20  776   1.520   4.912   4.578
   22PEN    C21  777   1.377   5.050   4.435
   22PEN    H22  778   1.200   5.102   4.519
   22PEN    C23  779   1.182   4.718   5.344
   22PEN    H24  780   0.994   4.792   5.389
   22PEN    H25  781   1.358   4.666   5.265
   22PEN    H26  782   1.602   4.865   4.593
   22PEN    C27  783   1.501   4.978   4.458
   22PEN    C28  784   1.360   5.116   4.310
   22PEN    H29  785   1.196   4.674   5.427
   22PEN    C30  786   1.599   4.976   4.354
   22PEN    C31  787   1.456   5.112   4.214
   22PEN    H32  788   1.280   5.164   4.294
   22PEN    C33  789   1.578   5.040   4.237
   22PEN    H34  790   1.680   4.929   4.368
   22PEN    H35  791   1.442   5.156   4.131
   22PEN    H36  792   1.645   5.038   4.170
   23PEN     C1  793   1.267   5.245   6.284
   23PEN     C2  794   1.168   5.246   6.386
   23PEN     C3  795   1.391   5.173   6.307
   23PEN     C4  796   1.250   5.313   6.163
   23PEN     C5  797   1.188   5.180   6.506
   23PEN     H6  798   1.087   5.293   6.372
   23PEN     C7  799   1.408   5.105   6.430
   23PEN     C8  800   1.489   5.172   6.207
   23PEN     C9  801   1.347   5.313   6.063
   23PEN    H10  802   1.168   5.361   6.150
   23PEN    C11  803   1.090   5.182   6.610
   23PEN    C12  804   1.311   5.108   6.529
   23PEN    H13  805   1.488   5.056   6.445
   23PEN    H14  806   1.570   5.125   6.220
   23PEN    C15  807   1.472   5.240   6.086
   23PEN    C16  808   1.330   5.381   5.940
   23PEN    C17  809   1.111   5.117   6.727
   23PEN    H18  810   1.008   5.229   6.596
   23PEN    C19  811   1.328   5.042   6.654
   23PEN    C20  812   1.570   5.240   5.984
   23PEN    C21  813   1.428   5.378   5.841
   23PEN    H22  814   1.250   5.429   5.925
   23PEN    C23  815   1.232   5.046   6.750
   23PEN    H24  816   1.044   5.120   6.795
   23PEN    H25  817   1.409   4.993   6.671
   23PEN    H26  818   1.652   5.193   5.998
   23PEN    C27  819   1.551   5.305   5.864
   23PEN    C28  820   1.410   5.444   5.716
   23PEN    H29  821   1.246   5.001   6.833
   23PEN    C30  822   1.649   5.304   5.760
   23PEN    C31  823   1.506   5.440   5.620
   23PEN    H32  824   1.330   5.492   5.699
   23PEN    C33  825   1.628   5.368   5.643
   23PEN    H34  826   1.731   5.257   5.774
   23PEN    H35  827   1.492   5.484   5.537
   23PEN    H36  828   1.695   5.366   5.575
   24PEN     C1  829   1.224   3.049   3.274
   24PEN     C2  830   1.323   3.048   3.172
   24PEN     C3  831   1.100   3.122   3.251
   24PEN     C4  832   1.241   2.981   3.396
   24PEN     C5  833   1.303   3.114   3.052
   24PEN     H6  834   1.404   3.002   3.187
   24PEN     C7  835   1.083   3.190   3.129
   24PEN     C8  836   1.002   3.122   3.352
   24PEN     C9  837   1.144   2.981   3.496
   24PEN    H10  838   1.323   2.934   3.409
   24PEN    C11  839   1.402   3.113   2.949
   24PEN    C12  840   1.180   3.187   3.030
   24PEN    H13  841   1.003   3.238   3.114
   24PEN    H14  842   0.921   3.170   3.338
   24PEN    C15  843   1.019   3.054   3.473
   24PEN    C16  844   1.161   2.914   3.619
   24PEN    C17  845   1.381   3.177   2.831
   24PEN    H18  846   1.483   3.066   2.962
   24PEN    C19  847   1.163   3.253   2.904
   24PEN    C20  848   0.921   3.055   3.575
   24PEN    C21  849   1.064   2.916   3.717
   24PEN    H22  850   1.241   2.865   3.634
   24PEN    C23  851   1.259   3.248   2.809
   24PEN    H24  852   1.447   3.175   2.764
   24PEN    H25  853   1.083   3.301   2.888
   24PEN    H26  854   0.840   3.102   3.560
   24PEN    C27  855   0.941   2.989   3.695
   24PEN    C28  856   1.081   2.850   3.843
   24PEN    H29  857   1.245   3.293   2.726
   24PEN    C30  858   0.842   2.991   3.799
   24PEN    C31  859   0.985   2.855   3.939
   24PEN    H32  860   1.161   2.802   3.859
   24PEN    C33  861   0.863   2.926   3.916
   24PEN    H34  862   0.761   3.037   3.785
   24PEN    H35  863   0.999   2.810   4.022
   24PEN    H36  864   0.797   2.929   3.983
   25PEN     C1  865   1.271   3.929   0.463
   25PEN     C2  866   1.370   3.929   0.361
   25PEN     C3  867   1.147   4.002   0.440
   25PEN     C4  868   1.288   3.861   0.584
   25PEN     C5  869   1.350   3.995   0.241
   25PEN     H6  870   1.451   3.882   0.376
   25PEN     C7  871   1.130   4.070   0.317
   25PEN     C8  872   1.049   4.003   0.540
   25PEN     C9  873   1.191   3.862   0.685
   25PEN    H10  874   1.370   3.814   0.597
   25PEN    C11  875   1.449   3.993   0.137
   25PEN    C12  876   1.227   4.067   0.218
   25PEN    H13  877   1.050   4.119   0.302
   25PEN    H14  878   0.968   4.050   0.527
   25PEN    C15  879   1.066   3.935   0.662
   25PEN    C16  880   1.208   3.794   0.807
   25PEN    C17  881   1.427   4.057   0.020
   25PEN    H18  882   1.530   3.946   0.151
   25PEN    C19  883   1.210   4.133   0.093
   25PEN    C20  884   0.968   3.935   0.763
   25PEN    C21  885   1.111   3.797   0.906
   25PEN    H22  886   1.288   3.745   0.822
   25PEN    C23  887   1.306   4.129  -0.003
   25PEN    H24  888   1.494   4.055  -0.048
   25PEN    H25  889   1.130   4.181   0.076
   25PEN    H26  890   0.887   3.982   0.749
   25PEN    C27  891   0.988   3.869   0.883
   25PEN    C28  892   1.128   3.731   1.031
   25PEN    H29  893   1.292   4.173  -0.086
   25PEN    C30  894   0.889   3.871   0.987
   25PEN    C31  895   1.032   3.735   1.127
   25PEN    H32  896   1.208   3.683   1.048
   25PEN    C33  897   0.910   3.807   1.104
   25PEN    H34  898   0.808   3.918   0.974
   25PEN    H35  899   1.046   3.691   1.210
   25PEN    H36  900   0.844   3.809   1.172
   26PEN     C1  901   1.450   2.397   1.887
   26PEN     C2  902   1.550   2.455   1.804
   26PEN     C3  903   1.327   2.349   1.827
   26PEN     C4  904   1.468   2.387   2.026
   26PEN     C5  905   1.532   2.465   1.667
   26PEN     H6  906   1.630   2.487   1.843
   26PEN     C7  907   1.312   2.361   1.688
   26PEN     C8  908   1.229   2.293   1.910
   26PEN     C9  909   1.370   2.331   2.109
   26PEN    H10  910   1.550   2.419   2.063
   26PEN    C11  911   1.631   2.523   1.580
   26PEN    C12  912   1.409   2.417   1.607
   26PEN    H13  913   1.231   2.329   1.648
   26PEN    H14  914   1.148   2.261   1.873
   26PEN    C15  915   1.247   2.283   2.049
   26PEN    C16  916   1.386   2.320   2.248
   26PEN    C17  917   1.611   2.533   1.447
   26PEN    H18  918   1.712   2.556   1.618
   26PEN    C19  919   1.393   2.430   1.464
   26PEN    C20  920   1.148   2.225   2.132
   26PEN    C21  921   1.288   2.263   2.329
   26PEN    H22  922   1.466   2.351   2.288
   26PEN    C23  923   1.491   2.485   1.388
   26PEN    H24  924   1.678   2.572   1.392
   26PEN    H25  925   1.313   2.399   1.423
   26PEN    H26  926   1.067   2.193   2.093
   26PEN    C27  927   1.166   2.215   2.269
   26PEN    C28  928   1.305   2.250   2.471
   26PEN    H29  929   1.479   2.491   1.294
   26PEN    C30  930   1.066   2.157   2.356
   26PEN    C31  931   1.207   2.195   2.548
   26PEN    H32  932   1.385   2.281   2.513
   26PEN    C33  933   1.086   2.147   2.489
   26PEN    H34  934   0.985   2.124   2.318
   26PEN    H35  935   1.219   2.189   2.642
   26PEN    H36  936   1.019   2.108   2.544
   27PEN     C1  937   1.551   3.053   4.699
   27PEN     C2  938   1.650   3.110   4.615
   27PEN     C3  939   1.428   3.004   4.638
   27PEN     C4  940   1.569   3.043   4.837
   27PEN     C5  941   1.632   3.120   4.478
   27PEN     H6  942   1.730   3.142   4.654
   27PEN     C7  943   1.412   3.016   4.499
   27PEN     C8  944   1.329   2.948   4.721
   27PEN     C9  945   1.470   2.987   4.920
   27PEN    H10  946   1.650   3.074   4.875
   27PEN    C11  947   1.732   3.179   4.392
   27PEN    C12  948   1.509   3.072   4.418
   27PEN    H13  949   1.332   2.984   4.459
   27PEN    H14  950   1.248   2.916   4.684
   27PEN    C15  951   1.347   2.938   4.860
   27PEN    C16  952   1.486   2.975   5.060
   27PEN    C17  953   1.712   3.188   4.258
   27PEN    H18  954   1.812   3.211   4.429
   27PEN    C19  955   1.493   3.085   4.276
   27PEN    C20  956   1.248   2.881   4.943
   27PEN    C21  957   1.388   2.918   5.141
   27PEN    H22  958   1.566   3.007   5.100
   27PEN    C23  959   1.591   3.140   4.200
   27PEN    H24  960   1.779   3.227   4.203
   27PEN    H25  961   1.413   3.054   4.235
   27PEN    H26  962   1.168   2.849   4.904
   27PEN    C27  963   1.266   2.871   5.081
   27PEN    C28  964   1.405   2.906   5.283
   27PEN    H29  965   1.579   3.147   4.106
   27PEN    C30  966   1.166   2.812   5.167
   27PEN    C31  967   1.307   2.851   5.359
   27PEN    H32  968   1.485   2.936   5.324
   27PEN    C33  969   1.186   2.802   5.301
   27PEN    H34  970   1.085   2.780   5.129
   27PEN    H35  971   1.319   2.844   5.453
   27PEN    H36  972   1.119   2.763   5.356
   28PEN     C1  973   1.471   4.034   6.266
   28PEN     C2  974   1.372   3.976   6.349
   28PEN     C3  975   1.594   4.082   6.326
   28PEN     C4  976   1.453   4.044   6.127
   28PEN     C5  977   1.390   3.966   6.486
   28PEN     H6  978   1.291   3.944   6.310
   28PEN     C7  979   1.610   4.070   6.465
   28PEN     C8  980   1.692   4.138   6.243
   28PEN     C9  981   1.551   4.099   6.044
   28PEN    H10  982   1.372   4.012   6.090
   28PEN    C11  983   1.290   3.908   6.573
   28PEN    C12  984   1.512   4.014   6.546
   28PEN    H13  985   1.690   4.102   6.505
   28PEN    H14  986   1.774   4.170   6.280
   28PEN    C15  987   1.674   4.148   6.104
   28PEN    C16  988   1.536   4.111   5.905
   28PEN    C17  989   1.310   3.898   6.706
   28PEN    H18  990   1.209   3.875   6.535
   28PEN    C19  991   1.529   4.001   6.689
   28PEN    C20  992   1.774   4.205   6.021
   28PEN    C21  993   1.633   4.168   5.824
   28PEN    H22  994   1.455   4.080   5.865
   28PEN    C23  995   1.431   3.946   6.765
   28PEN    H24  996   1.243   3.859   6.761
   28PEN    H25  997   1.609   4.032   6.730
   28PEN    H26  998   1.854   4.238   6.060
   28PEN    C27  999   1.756   4.216   5.884
   28PEN    C28 1000   1.617   4.180   5.681
   28PEN    H29 1001   1.443   3.940   6.859
   28PEN    C30 1002   1.855   4.274   5.797
   28PEN    C31 1003   1.715   4.236   5.605
   28PEN    H32 1004   1.537   4.150   5.640
   28PEN    C33 1005   1.835   4.284   5.664
   28PEN    H34 1006   1.936   4.307   5.835
   28PEN    H35 1007   1.703   4.242   5.511
   28PEN    H36 1008   1.902   4.323   5.609
   29PEN     C1 1009   1.250   1.730   6.266
   29PEN     C2 1010   1.151   1.673   6.349
   29PEN     C3 1011   1.373   1.779   6.326
   29PEN     C4 1012   1.232   1.740   6.127
   29PEN     C5 1013   1.169   1.663   6.486
   29PEN     H6 1014   1.071   1.641   6.310
   29PEN     C7 1015   1.389   1.767   6.465
   29PEN     C8 1016   1.471   1.835   6.243
   29PEN     C9 1017   1.330   1.796   6.044
   29PEN    H10 1018   1.151   1.708   6.090
   29PEN    C11 1019   1.069   1.604   6.573
   29PEN    C12 1020   1.291   1.710   6.546
   29PEN    H13 1021   1.469   1.799   6.505
   29PEN    H14 1022   1.553   1.866   6.280
   29PEN    C15 1023   1.453   1.845   6.104
   29PEN    C16 1024   1.315   1.808   5.905
   29PEN    C17 1025   1.089   1.594   6.706
   29PEN    H18 1026   0.988   1.572   6.535
   29PEN    C19 1027   1.308   1.698   6.689
   29PEN    C20 1028   1.553   1.902   6.021
   29PEN    C21 1029   1.412   1.864   5.824
   29PEN    H22 1030   1.235   1.776   5.865
   29PEN    C23 1031   1.210   1.643   6.765
   29PEN    H24 1032   1.022   1.555   6.761
   29PEN    H25 1033   1.388   1.728   6.730
   29PEN    H26 1034   1.633   1.934   6.060
   29PEN    C27 1035   1.535   1.912   5.884
   29PEN    C28 1036   1.396   1.877   5.681
   29PEN    H29 1037   1.222   1.636   6.859
   29PEN    C30 1038   1.634   1.971   5.797
   29PEN    C31 1039   1.494   1.932   5.605
   29PEN    H32 1040   1.316   1.846   5.640
   29PEN    C33 1041   1.615   1.980   5.664
   29PEN    H34 1042   1.715   2.003   5.835
   29PEN    H35 1043   1.482   1.939   5.511
   29PEN    H36 1044   1.681   2.019   5.609
   30PEN     C1 1045   1.397   3.266   6.266
   30PEN     C2 1046   1.298   3.209   6.349
   30PEN     C3 1047   1.521   3.314   6.326
   30PEN     C4 1048   1.380   3.276   6.127
   30PEN     C5 1049   1.316   3.198   6.486
   30PEN     H6 1050   1.218   3.176   6.310
   30PEN     C7 1051   1.536   3.303   6.465
   30PEN     C8 1052   1.619   3.370   6.243
   30PEN     C9 1053   1.478   3.332   6.044
   30PEN    H10 1054   1.298   3.244   6.090
   30PEN    C11 1055   1.217   3.140   6.573
   30PEN    C12 1056   1.439   3.246   6.546
   30PEN    H13 1057   1.616   3.334   6.505
   30PEN    H14 1058   1.700   3.402   6.280
   30PEN    C15 1059   1.601   3.380   6.104
   30PEN    C16 1060   1.462   3.344   5.905
   30PEN    C17 1061   1.236   3.130   6.706
   30PEN    H18 1062   1.136   3.107   6.535
   30PEN    C19 1063   1.455   3.234   6.689
   30PEN    C20 1064   1.700   3.438   6.021
   30PEN    C21 1065   1.560   3.400   5.824
   30PEN    H22 1066   1.382   3.312   5.865
   30PEN    C23 1067   1.357   3.178   6.765
   30PEN    H24 1068   1.169   3.091   6.761
   30PEN    H25 1069   1.535   3.264   6.730
   30PEN    H26 1070   1.780   3.470   6.060
   30PEN    C27 1071   1.682   3.448   5.884
   30PEN    C28 1072   1.543   3.413   5.681
   30PEN    H29 1073   1.369   3.172   6.859
   30PEN    C30 1074   1.782   3.506   5.797
   30PEN    C31 1075   1.641   3.468   5.605
   30PEN    H32 1076   1.463   3.382   5.640
   30PEN    C33 1077   1.762   3.516   5.664
   30PEN    H34 1078   1.863   3.539   5.835
   30PEN    H35 1079   1.629   3.474   5.511
   30PEN    H36 1080   1.829   3.555   5.609
   31PEN     C1 1081   1.200   1.402   4.860
   31PEN     C2 1082   1.101   1.345   4.943
   31PEN     C3 1083   1.323   1.451   4.920
   31PEN     C4 1084   1.182   1.412   4.721
   31PEN     C5 1085   1.119   1.335   5.081
   31PEN     H6 1086   1.020   1.313   4.904
   31PEN     C7 1087   1.339   1.439   5.060
   31PEN     C8 1088   1.421   1.507   4.837
   31PEN     C9 1089   1.280   1.468   4.638
   31PEN    H10 1090   1.101   1.381   4.684
   31PEN    C11 1091   1.019   1.276   5.167
   31PEN    C12 1092   1.241   1.383   5.141
   31PEN    H13 1093   1.419   1.471   5.100
   31PEN    H14 1094   1.503   1.539   4.875
   31PEN    C15 1095   1.403   1.517   4.699
   31PEN    C16 1096   1.265   1.480   4.499
   31PEN    C17 1097   1.039   1.267   5.301
   31PEN    H18 1098   0.938   1.244   5.129
   31PEN    C19 1099   1.258   1.370   5.283
   31PEN    C20 1100   1.503   1.574   4.615
   31PEN    C21 1101   1.362   1.537   4.418
   31PEN    H22 1102   1.184   1.448   4.459
   31PEN    C23 1103   1.160   1.315   5.359
   31PEN    H24 1104   0.972   1.228   5.356
   31PEN    H25 1105   1.338   1.401   5.324
   31PEN    H26 1106   1.583   1.606   4.654
   31PEN    C27 1107   1.485   1.584   4.478
   31PEN    C28 1108   1.346   1.549   4.276
   31PEN    H29 1109   1.172   1.308   5.453
   31PEN    C30 1110   1.584   1.643   4.392
   31PEN    C31 1111   1.444   1.604   4.200
   31PEN    H32 1112   1.266   1.519   4.235
   31PEN    C33 1113   1.564   1.653   4.258
   31PEN    H34 1114   1.665   1.675   4.429
   31PEN    H35 1115   1.432   1.611   4.106
   31PEN    H36 1116   1.631   1.692   4.203
   32PEN     C1 1117   1.303   0.862   1.887
   32PEN     C2 1118   1.402   0.919   1.804
   32PEN     C3 1119   1.180   0.813   1.827
   32PEN     C4 1120   1.321   0.851   2.026
   32PEN     C5 1121   1.384   0.929   1.667
   32PEN     H6 1122   1.483   0.951   1.843
   32PEN     C7 1123   1.164   0.825   1.688
   32PEN     C8 1124   1.082   0.757   1.910
   32PEN     C9 1125   1.223   0.796   2.109
   32PEN    H10 1126   1.402   0.883   2.063
   32PEN    C11 1127   1.484   0.988   1.580
   32PEN    C12 1128   1.262   0.881   1.607
   32PEN    H13 1129   1.084   0.793   1.648
   32PEN    H14 1130   1.001   0.725   1.873
   32PEN    C15 1131   1.100   0.747   2.049
   32PEN    C16 1132   1.239   0.784   2.248
   32PEN    C17 1133   1.464   0.997   1.447
   32PEN    H18 1134   1.565   1.020   1.618
   32PEN    C19 1135   1.246   0.894   1.464
   32PEN    C20 1136   1.001   0.690   2.132
   32PEN    C21 1137   1.141   0.727   2.329
   32PEN    H22 1138   1.319   0.816   2.288
   32PEN    C23 1139   1.343   0.949   1.388
   32PEN    H24 1140   1.531   1.036   1.392
   32PEN    H25 1141   1.166   0.863   1.423
   32PEN    H26 1142   0.920   0.658   2.093
   32PEN    C27 1143   1.019   0.680   2.269
   32PEN    C28 1144   1.157   0.715   2.471
   32PEN    H29 1145   1.331   0.955   1.294
   32PEN    C30 1146   0.919   0.621   2.356
   32PEN    C31 1147   1.059   0.660   2.548
   32PEN    H32 1148   1.237   0.745   2.513
   32PEN    C33 1149   0.939   0.611   2.489
   32PEN    H34 1150   0.838   0.589   2.318
   32PEN    H35 1151   1.072   0.653   2.642
   32PEN    H36 1152   0.872   0.572   2.544
   33PEN     C1 1153   1.150   1.075   3.454
   33PEN     C2 1154   1.051   1.017   3.538
   33PEN     C3 1155   1.273   1.123   3.515
   33PEN     C4 1156   1.132   1.085   3.316
   33PEN     C5 1157   1.069   1.007   3.675
   33PEN     H6 1158   0.970   0.985   3.499
   33PEN     C7 1159   1.289   1.111   3.654
   33PEN     C8 1160   1.371   1.179   3.432
   33PEN     C9 1161   1.230   1.141   3.233
   33PEN    H10 1162   1.051   1.053   3.278
   33PEN    C11 1163   0.969   0.949   3.761
   33PEN    C12 1164   1.191   1.055   3.735
   33PEN    H13 1165   1.369   1.143   3.694
   33PEN    H14 1166   1.453   1.211   3.469
   33PEN    C15 1167   1.353   1.189   3.293
   33PEN    C16 1168   1.215   1.152   3.093
   33PEN    C17 1169   0.989   0.939   3.895
   33PEN    H18 1170   0.888   0.916   3.724
   33PEN    C19 1171   1.207   1.042   3.877
   33PEN    C20 1172   1.452   1.246   3.210
   33PEN    C21 1173   1.312   1.209   3.012
   33PEN    H22 1174   1.134   1.121   3.053
   33PEN    C23 1175   1.110   0.987   3.953
   33PEN    H24 1176   0.922   0.900   3.950
   33PEN    H25 1177   1.287   1.073   3.918
   33PEN    H26 1178   1.533   1.279   3.249
   33PEN    C27 1179   1.435   1.257   3.072
   33PEN    C28 1180   1.296   1.222   2.870
   33PEN    H29 1181   1.122   0.981   4.047
   33PEN    C30 1182   1.534   1.315   2.986
   33PEN    C31 1183   1.394   1.277   2.794
   33PEN    H32 1184   1.216   1.191   2.829
   33PEN    C33 1185   1.514   1.325   2.852
   33PEN    H34 1186   1.615   1.348   3.023
   33PEN    H35 1187   1.382   1.283   2.700
   33PEN    H36 1188   1.581   1.364   2.797
   34PEN     C1 1189   1.253   0.534   0.482
   34PEN     C2 1190   1.352   0.591   0.398
   34PEN     C3 1191   1.130   0.485   0.421
   34PEN     C4 1192   1.271   0.524   0.620
   34PEN     C5 1193   1.334   0.601   0.261
   34PEN     H6 1194   1.433   0.623   0.437
   34PEN     C7 1195   1.114   0.497   0.282
   34PEN     C8 1196   1.032   0.429   0.504
   34PEN     C9 1197   1.173   0.468   0.703
   34PEN    H10 1198   1.352   0.555   0.658
   34PEN    C11 1199   1.434   0.660   0.175
   34PEN    C12 1200   1.212   0.554   0.201
   34PEN    H13 1201   1.034   0.465   0.242
   34PEN    H14 1202   0.950   0.398   0.467
   34PEN    C15 1203   1.050   0.419   0.643
   34PEN    C16 1204   1.188   0.456   0.843
   34PEN    C17 1205   1.414   0.670   0.041
   34PEN    H18 1206   1.515   0.692   0.212
   34PEN    C19 1207   1.195   0.566   0.059
   34PEN    C20 1208   0.951   0.362   0.726
   34PEN    C21 1209   1.091   0.400   0.924
   34PEN    H22 1210   1.269   0.488   0.883
   34PEN    C23 1211   1.293   0.621  -0.017
   34PEN    H24 1212   1.481   0.709  -0.014
   34PEN    H25 1213   1.115   0.536   0.018
   34PEN    H26 1214   0.870   0.330   0.687
   34PEN    C27 1215   0.968   0.352   0.864
   34PEN    C28 1216   1.107   0.387   1.066
   34PEN    H29 1217   1.281   0.628  -0.111
   34PEN    C30 1218   0.869   0.293   0.950
   34PEN    C31 1219   1.009   0.332   1.142
   34PEN    H32 1220   1.187   0.418   1.107
   34PEN    C33 1221   0.889   0.284   1.083
   34PEN    H34 1222   0.788   0.261   0.912
   34PEN    H35 1223   1.021   0.325   1.236
   34PEN    H36 1224   0.822   0.245   1.138
   35PEN     C1 1225   1.324   2.498   6.266
   35PEN     C2 1226   1.225   2.441   6.349
   35PEN     C3 1227   1.447   2.547   6.326
   35PEN     C4 1228   1.306   2.508   6.127
   35PEN     C5 1229   1.243   2.431   6.486
   35PEN     H6 1230   1.144   2.409   6.310
   35PEN     C7 1231   1.463   2.535   6.465
   35PEN     C8 1232   1.545   2.602   6.243
   35PEN     C9 1233   1.404   2.564   6.044
   35PEN    H10 1234   1.225   2.476   6.090
   35PEN    C11 1235   1.143   2.372   6.573
   35PEN    C12 1236   1.365   2.478   6.546
   35PEN    H13 1237   1.543   2.566   6.505
   35PEN    H14 1238   1.626   2.634   6.280
   35PEN    C15 1239   1.527   2.613   6.104
   35PEN    C16 1240   1.388   2.576   5.905
   35PEN    C17 1241   1.163   2.362   6.706
   35PEN    H18 1242   1.062   2.340   6.535
   35PEN    C19 1243   1.381   2.466   6.689
   35PEN    C20 1244   1.626   2.670   6.021
   35PEN    C21 1245   1.486   2.632   5.824
   35PEN    H22 1246   1.308   2.544   5.865
   35PEN    C23 1247   1.283   2.411   6.765
   35PEN    H24 1248   1.096   2.323   6.761
   35PEN    H25 1249   1.461   2.496   6.730
   35PEN    H26 1250   1.707   2.702   6.060
   35PEN    C27 1251   1.608   2.680   5.884
   35PEN    C28 1252   1.470   2.645   5.681
   35PEN    H29 1253   1.296   2.404   6.859
   35PEN    C30 1254   1.708   2.738   5.797
   35PEN    C31 1255   1.567   2.700   5.605
   35PEN    H32 1256   1.390   2.614   5.640
   35PEN    C33 1257   1.688   2.748   5.664
   35PEN    H34 1258   1.789   2.771   5.835
   35PEN    H35 1259   1.555   2.706   5.511
   35PEN    H36 1260   1.755   2.787   5.609
   36PEN     C1 1261   1.377   1.630   1.887
   36PEN     C2 1262   1.476   1.687   1.804
   36PEN     C3 1263   1.254   1.581   1.827
   36PEN     C4 1264   1.395   1.619   2.026
   36PEN     C5 1265   1.458   1.697   1.667
   36PEN     H6 1266   1.556   1.719   1.843
   36PEN     C7 1267   1.238   1.593   1.688
   36PEN     C8 1268   1.156   1.525   1.910
   36PEN     C9 1269   1.297   1.564   2.109
   36PEN    H10 1270   1.476   1.651   2.063
   36PEN    C11 1271   1.558   1.755   1.580
   36PEN    C12 1272   1.336   1.649   1.607
   36PEN    H13 1273   1.158   1.561   1.648
   36PEN    H14 1274   1.074   1.493   1.873
   36PEN    C15 1275   1.173   1.515   2.049
   36PEN    C16 1276   1.312   1.552   2.248
   36PEN    C17 1277   1.538   1.765   1.447
   36PEN    H18 1278   1.639   1.788   1.618
   36PEN    C19 1279   1.319   1.662   1.464
   36PEN    C20 1280   1.074   1.458   2.132
   36PEN    C21 1281   1.215   1.495   2.329
   36PEN    H22 1282   1.392   1.583   2.288
   36PEN    C23 1283   1.417   1.717   1.388
   36PEN    H24 1284   1.605   1.804   1.392
   36PEN    H25 1285   1.239   1.631   1.423
   36PEN    H26 1286   0.994   1.426   2.093
   36PEN    C27 1287   1.092   1.448   2.269
   36PEN    C28 1288   1.231   1.483   2.471
   36PEN    H29 1289   1.405   1.723   1.294
   36PEN    C30 1290   0.993   1.389   2.356
   36PEN    C31 1291   1.133   1.427   2.548
   36PEN    H32 1292   1.311   1.513   2.513
   36PEN    C33 1293   1.012   1.379   2.489
   36PEN    H34 1294   0.912   1.357   2.318
   36PEN    H35 1295   1.145   1.421   2.642
   36PEN    H36 1296   0.945   1.340   2.544
   37PEN     C1 1297   1.477   2.285   4.699
   37PEN     C2 1298   1.576   2.342   4.615
   37PEN     C3 1299   1.354   2.236   4.638
   37PEN     C4 1300   1.495   2.275   4.837
   37PEN     C5 1301   1.558   2.352   4.478
   37PEN     H6 1302   1.657   2.374   4.654
   37PEN     C7 1303   1.338   2.248   4.499
   37PEN     C8 1304   1.256   2.180   4.721
   37PEN     C9 1305   1.397   2.219   4.920
   37PEN    H10 1306   1.576   2.306   4.875
   37PEN    C11 1307   1.658   2.411   4.392
   37PEN    C12 1308   1.436   2.305   4.418
   37PEN    H13 1309   1.258   2.216   4.459
   37PEN    H14 1310   1.174   2.149   4.684
   37PEN    C15 1311   1.274   2.170   4.860
   37PEN    C16 1312   1.412   2.207   5.060
   37PEN    C17 1313   1.638   2.420   4.258
   37PEN    H18 1314   1.739   2.443   4.429
   37PEN    C19 1315   1.419   2.317   4.276
   37PEN    C20 1316   1.175   2.113   4.943
   37PEN    C21 1317   1.315   2.150   5.141
   37PEN    H22 1318   1.493   2.239   5.100
   37PEN    C23 1319   1.517   2.372   4.200
   37PEN    H24 1320   1.705   2.460   4.203
   37PEN    H25 1321   1.339   2.286   4.235
   37PEN    H26 1322   1.094   2.081   4.904
   37PEN    C27 1323   1.192   2.103   5.081
   37PEN    C28 1324   1.331   2.138   5.283
   37PEN    H29 1325   1.505   2.379   4.106
   37PEN    C30 1326   1.093   2.044   5.167
   37PEN    C31 1327   1.233   2.083   5.359
   37PEN    H32 1328   1.411   2.169   5.324
   37PEN    C33 1329   1.113   2.035   5.301
   37PEN    H34 1330   1.012   2.012   5.129
   37PEN    H35 1331   1.245   2.076   5.453
   37PEN    H36 1332   1.046   1.995   5.356
   38PEN     C1 1333   1.297   2.610   3.454
   38PEN     C2 1334   1.198   2.553   3.538
   38PEN     C3 1335   1.420   2.659   3.515
   38PEN     C4 1336   1.279   2.621   3.316
   38PEN     C5 1337   1.216   2.543   3.675
   38PEN     H6 1338   1.117   2.521   3.499
   38PEN     C7 1339   1.436   2.647   3.654
   38PEN     C8 1340   1.518   2.715   3.432
   38PEN     C9 1341   1.377   2.676   3.233
   38PEN    H10 1342   1.198   2.589   3.278
   38PEN    C11 1343   1.116   2.484   3.761
   38PEN    C12 1344   1.338   2.591   3.735
   38PEN    H13 1345   1.516   2.679   3.694
   38PEN    H14 1346   1.600   2.747   3.469
   38PEN    C15 1347   1.500   2.725   3.293
   38PEN    C16 1348   1.362   2.688   3.093
   38PEN    C17 1349   1.136   2.475   3.895
   38PEN    H18 1350   1.035   2.452   3.724
   38PEN    C19 1351   1.355   2.578   3.877
   38PEN    C20 1352   1.600   2.782   3.210
   38PEN    C21 1353   1.459   2.745   3.012
   38PEN    H22 1354   1.282   2.656   3.053
   38PEN    C23 1355   1.257   2.523   3.953
   38PEN    H24 1356   1.069   2.436   3.950
   38PEN    H25 1357   1.435   2.609   3.918
   38PEN    H26 1358   1.680   2.814   3.249
   38PEN    C27 1359   1.582   2.792   3.072
   38PEN    C28 1360   1.443   2.757   2.870
   38PEN    H29 1361   1.269   2.517   4.047
   38PEN    C30 1362   1.681   2.851   2.986
   38PEN    C31 1363   1.541   2.812   2.794
   38PEN    H32 1364   1.363   2.727   2.829
   38PEN    C33 1365   1.662   2.861   2.852
   38PEN    H34 1366   1.762   2.883   3.023
   38PEN    H35 1367   1.529   2.819   2.700
   38PEN    H36 1368   1.728   2.900   2.797
   39PEN     C1 1369   1.197   1.955   0.643
   39PEN     C2 1370   1.098   1.898   0.726
   39PEN     C3 1371   1.320   2.004   0.703
   39PEN     C4 1372   1.179   1.965   0.504
   39PEN     C5 1373   1.116   1.888   0.864
   39PEN     H6 1374   1.017   1.866   0.687
   39PEN     C7 1375   1.336   1.992   0.843
   39PEN     C8 1376   1.418   2.059   0.620
   39PEN     C9 1377   1.277   2.021   0.421
   39PEN    H10 1378   1.098   1.933   0.467
   39PEN    C11 1379   1.016   1.829   0.950
   39PEN    C12 1380   1.238   1.935   0.924
   39PEN    H13 1381   1.416   2.024   0.883
   39PEN    H14 1382   1.499   2.091   0.658
   39PEN    C15 1383   1.400   2.070   0.482
   39PEN    C16 1384   1.261   2.033   0.282
   39PEN    C17 1385   1.036   1.819   1.083
   39PEN    H18 1386   0.935   1.797   0.912
   39PEN    C19 1387   1.254   1.923   1.066
   39PEN    C20 1388   1.499   2.127   0.398
   39PEN    C21 1389   1.359   2.089   0.201
   39PEN    H22 1390   1.181   2.001   0.242
   39PEN    C23 1391   1.157   1.868   1.142
   39PEN    H24 1392   0.969   1.780   1.138
   39PEN    H25 1393   1.334   1.953   1.107
   39PEN    H26 1394   1.580   2.159   0.437
   39PEN    C27 1395   1.482   2.137   0.261
   39PEN    C28 1396   1.343   2.102   0.059
   39PEN    H29 1397   1.169   1.861   1.236
   39PEN    C30 1398   1.581   2.196   0.175
   39PEN    C31 1399   1.441   2.157  -0.017
   39PEN    H32 1400   1.263   2.071   0.018
   39PEN    C33 1401   1.561   2.205   0.041
   39PEN    H34 1402   1.662   2.228   0.212
   39PEN    H35 1403   1.428   2.163  -0.111
   39PEN    H36 1404   1.628   2.244  -0.014
   40PEN     C1 1405   1.321   3.051   2.049
   40PEN     C2 1406   1.221   2.993   2.132
   40PEN     C3 1407   1.444   3.099   2.109
   40PEN     C4 1408   1.303   3.061   1.910
   40PEN     C5 1409   1.239   2.983   2.269
   40PEN     H6 1410   1.141   2.961   2.093
   40PEN     C7 1411   1.459   3.087   2.248
   40PEN     C8 1412   1.542   3.155   2.026
   40PEN     C9 1413   1.401   3.116   1.827
   40PEN    H10 1414   1.221   3.029   1.873
   40PEN    C11 1415   1.140   2.925   2.356
   40PEN    C12 1416   1.362   3.031   2.329
   40PEN    H13 1417   1.540   3.119   2.288
   40PEN    H14 1418   1.623   3.187   2.063
   40PEN    C15 1419   1.524   3.165   1.887
   40PEN    C16 1420   1.385   3.128   1.688
   40PEN    C17 1421   1.160   2.915   2.489
   40PEN    H18 1422   1.059   2.892   2.318
   40PEN    C19 1423   1.378   3.018   2.471
   40PEN    C20 1424   1.623   3.222   1.804
   40PEN    C21 1425   1.483   3.185   1.607
   40PEN    H22 1426   1.305   3.097   1.648
   40PEN    C23 1427   1.280   2.963   2.548
   40PEN    H24 1428   1.093   2.876   2.544
   40PEN    H25 1429   1.458   3.049   2.513
   40PEN    H26 1430   1.704   3.255   1.843
   40PEN    C27 1431   1.605   3.232   1.667
   40PEN    C28 1432   1.466   3.197   1.464
   40PEN    H29 1433   1.292   2.957   2.642
   40PEN    C30 1434   1.705   3.291   1.580
   40PEN    C31 1435   1.564   3.253   1.388
   40PEN    H32 1436   1.386   3.167   1.423
   40PEN    C33 1437   1.685   3.301   1.447
   40PEN    H34 1438   1.786   3.323   1.618
   40PEN    H35 1439   1.552   3.259   1.294
   40PEN    H36 1440   1.752   3.340   1.392
   41PEN     C1 1441   1.574   3.493   3.293
   41PEN     C2 1442   1.673   3.550   3.210
   41PEN     C3 1443   1.451   3.444   3.233
   41PEN     C4 1444   1.592   3.483   3.432
   41PEN     C5 1445   1.655   3.560   3.072
   41PEN     H6 1446   1.754   3.582   3.249
   41PEN     C7 1447   1.435   3.456   3.093
   41PEN     C8 1448   1.353   3.388   3.316
   41PEN     C9 1449   1.494   3.427   3.515
   41PEN    H10 1450   1.673   3.514   3.469
   41PEN    C11 1451   1.755   3.619   2.986
   41PEN    C12 1452   1.533   3.513   3.012
   41PEN    H13 1453   1.355   3.424   3.053
   41PEN    H14 1454   1.272   3.357   3.278
   41PEN    C15 1455   1.371   3.378   3.454
   41PEN    C16 1456   1.510   3.415   3.654
   41PEN    C17 1457   1.735   3.628   2.852
   41PEN    H18 1458   1.836   3.651   3.023
   41PEN    C19 1459   1.517   3.525   2.870
   41PEN    C20 1460   1.272   3.321   3.538
   41PEN    C21 1461   1.412   3.359   3.735
   41PEN    H22 1462   1.590   3.447   3.694
   41PEN    C23 1463   1.614   3.580   2.794
   41PEN    H24 1464   1.802   3.668   2.797
   41PEN    H25 1465   1.437   3.494   2.829
   41PEN    H26 1466   1.191   3.289   3.499
   41PEN    C27 1467   1.289   3.311   3.675
   41PEN    C28 1468   1.428   3.346   3.877
   41PEN    H29 1469   1.602   3.587   2.700
   41PEN    C30 1470   1.190   3.252   3.761
   41PEN    C31 1471   1.330   3.291   3.953
   41PEN    H32 1472   1.508   3.377   3.918
   41PEN    C33 1473   1.210   3.243   3.895
   41PEN    H34 1474   1.109   3.220   3.724
   41PEN    H35 1475   1.343   3.284   4.047
   41PEN    H36 1476   1.143   3.203   3.950
   42PEN     C1 1477   1.624   3.821   4.699
   42PEN     C2 1478   1.723   3.878   4.615
   42PEN     C3 1479   1.501   3.772   4.638
   42PEN     C4 1480   1.642   3.810   4.837
   42PEN     C5 1481   1.706   3.888   4.478
   42PEN     H6 1482   1.804   3.910   4.654
   42PEN     C7 1483   1.485   3.784   4.499
   42PEN     C8 1484   1.403   3.716   4.721
   42PEN     C9 1485   1.544   3.755   4.920
   42PEN    H10 1486   1.723   3.842   4.875
   42PEN    C11 1487   1.805   3.946   4.392
   42PEN    C12 1488   1.583   3.840   4.418
   42PEN    H13 1489   1.405   3.752   4.459
   42PEN    H14 1490   1.322   3.684   4.684
   42PEN    C15 1491   1.421   3.706   4.860
   42PEN    C16 1492   1.560   3.743   5.060
   42PEN    C17 1493   1.785   3.956   4.258
   42PEN    H18 1494   1.886   3.979   4.429
   42PEN    C19 1495   1.567   3.853   4.276
   42PEN    C20 1496   1.322   3.649   4.943
   42PEN    C21 1497   1.462   3.686   5.141
   42PEN    H22 1498   1.640   3.774   5.100
   42PEN    C23 1499   1.665   3.908   4.200
   42PEN    H24 1500   1.852   3.995   4.203
   42PEN    H25 1501   1.487   3.822   4.235
   42PEN    H26 1502   1.241   3.617   4.904
   42PEN    C27 1503   1.340   3.639   5.081
   42PEN    C28 1504   1.478   3.674   5.283
   42PEN    H29 1505   1.652   3.914   4.106
   42PEN    C30 1506   1.240   3.580   5.167
   42PEN    C31 1507   1.381   3.619   5.359
   42PEN    H32 1508   1.558   3.704   5.324
   42PEN    C33 1509   1.260   3.570   5.301
   42PEN    H34 1510   1.159   3.548   5.129
   42PEN    H35 1511   1.393   3.612   5.453
   42PEN    H36 1512   1.193   3.531   5.356
   43PEN     C1 1513   1.271   2.723   0.643
   43PEN     C2 1514   1.171   2.666   0.726
   43PEN     C3 1515   1.394   2.772   0.703
   43PEN     C4 1516   1.253   2.733   0.504
   43PEN     C5 1517   1.189   2.656   0.864
   43PEN     H6 1518   1.091   2.634   0.687
   43PEN     C7 1519   1.409   2.760   0.843
   43PEN     C8 1520   1.492   2.827   0.620
   43PEN     C9 1521   1.351   2.789   0.421
   43PEN    H10 1522   1.171   2.701   0.467
   43PEN    C11 1523   1.090   2.597   0.950
   43PEN    C12 1524   1.312   2.703   0.924
   43PEN    H13 1525   1.489   2.791   0.883
   43PEN    H14 1526   1.573   2.859   0.658
   43PEN    C15 1527   1.474   2.838   0.482
   43PEN    C16 1528   1.335   2.801   0.282
   43PEN    C17 1529   1.109   2.587   1.083
   43PEN    H18 1530   1.009   2.565   0.912
   43PEN    C19 1531   1.328   2.691   1.066
   43PEN    C20 1532   1.573   2.895   0.398
   43PEN    C21 1533   1.433   2.857   0.201
   43PEN    H22 1534   1.255   2.769   0.242
   43PEN    C23 1535   1.230   2.636   1.142
   43PEN    H24 1536   1.043   2.548   1.138
   43PEN    H25 1537   1.408   2.721   1.107
   43PEN    H26 1538   1.654   2.927   0.437
   43PEN    C27 1539   1.555   2.905   0.261
   43PEN    C28 1540   1.416   2.870   0.059
   43PEN    H29 1541   1.242   2.629   1.236
   43PEN    C30 1542   1.655   2.963   0.175
   43PEN    C31 1543   1.514   2.925  -0.017
   43PEN    H32 1544   1.336   2.839   0.018
   43PEN    C33 1545   1.635   2.973   0.041
   43PEN    H34 1546   1.736   2.996   0.212
   43PEN    H35 1547   1.502   2.931  -0.111
   43PEN    H36 1548   1.702   3.012  -0.014
   44PEN     C1 1549   1.444   4.146   3.454
   44PEN     C2 1550   1.345   4.089   3.538
   44PEN     C3 1551   1.568   4.195   3.515
   44PEN     C4 1552   1.426   4.156   3.316
   44PEN     C5 1553   1.363   4.079   3.675
   44PEN     H6 1554   1.265   4.057   3.499
   44PEN     C7 1555   1.583   4.183   3.654
   44PEN     C8 1556   1.666   4.251   3.432
   44PEN     C9 1557   1.525   4.212   3.233
   44PEN    H10 1558   1.345   4.125   3.278
   44PEN    C11 1559   1.263   4.020   3.761
   44PEN    C12 1560   1.486   4.126   3.735
   44PEN    H13 1561   1.663   4.215   3.694
   44PEN    H14 1562   1.747   4.282   3.469
   44PEN    C15 1563   1.648   4.261   3.293
   44PEN    C16 1564   1.509   4.224   3.093
   44PEN    C17 1565   1.283   4.010   3.895
   44PEN    H18 1566   1.183   3.988   3.724
   44PEN    C19 1567   1.502   4.114   3.877
   44PEN    C20 1568   1.747   4.318   3.210
   44PEN    C21 1569   1.607   4.280   3.012
   44PEN    H22 1570   1.429   4.192   3.053
   44PEN    C23 1571   1.404   4.059   3.953
   44PEN    H24 1572   1.216   3.971   3.950
   44PEN    H25 1573   1.582   4.144   3.918
   44PEN    H26 1574   1.827   4.350   3.249
   44PEN    C27 1575   1.729   4.328   3.072
   44PEN    C28 1576   1.590   4.293   2.870
   44PEN    H29 1577   1.416   4.052   4.047
   44PEN    C30 1578   1.829   4.387   2.986
   44PEN    C31 1579   1.688   4.348   2.794
   44PEN    H32 1580   1.510   4.262   2.829
   44PEN    C33 1581   1.809   4.396   2.852
   44PEN    H34 1582   1.910   4.419   3.023
   44PEN    H35 1583   1.676   4.355   2.700
   44PEN    H36 1584   1.876   4.436   2.797
   45PEN     C1 1585   1.547   3.605   0.482
   45PEN     C2 1586   1.647   3.663   0.398
   45PEN     C3 1587   1.424   3.557   0.421
   45PEN     C4 1588   1.565   3.595   0.620
   45PEN     C5 1589   1.629   3.673   0.261
   45PEN     H6 1590   1.727   3.695   0.437
   45PEN     C7 1591   1.409   3.569   0.282
   45PEN     C8 1592   1.326   3.501   0.504
   45PEN     C9 1593   1.467   3.539   0.703
   45PEN    H10 1594   1.647   3.627   0.658
   45PEN    C11 1595   1.728   3.731   0.175
   45PEN    C12 1596   1.506   3.625   0.201
   45PEN    H13 1597   1.329   3.537   0.242
   45PEN    H14 1598   1.245   3.469   0.467
   45PEN    C15 1599   1.344   3.491   0.643
   45PEN    C16 1600   1.483   3.528   0.843
   45PEN    C17 1601   1.709   3.741   0.041
   45PEN    H18 1602   1.809   3.764   0.212
   45PEN    C19 1603   1.490   3.638   0.059
   45PEN    C20 1604   1.245   3.434   0.726
   45PEN    C21 1605   1.385   3.471   0.924
   45PEN    H22 1606   1.563   3.559   0.883
   45PEN    C23 1607   1.588   3.693  -0.017
   45PEN    H24 1608   1.775   3.780  -0.014
   45PEN    H25 1609   1.410   3.607   0.018
   45PEN    H26 1610   1.164   3.401   0.687
   45PEN    C27 1611   1.263   3.423   0.864
   45PEN    C28 1612   1.402   3.458   1.066
   45PEN    H29 1613   1.576   3.699  -0.111
   45PEN    C30 1614   1.163   3.365   0.950
   45PEN    C31 1615   1.304   3.403   1.142
   45PEN    H32 1616   1.482   3.489   1.107
   45PEN    C33 1617   1.183   3.355   1.083
   45PEN    H34 1618   1.082   3.332   0.912
   45PEN    H35 1619   1.316   3.397   1.236
   45PEN    H36 1620   1.116   3.316   1.138
   46PEN     C1 1621   1.698   4.588   4.699
   46PEN     C2 1622   1.797   4.646   4.615
   46PEN     C3 1623   1.575   4.540   4.638
   46PEN     C4 1624   1.716   4.578   4.837
   46PEN     C5 1625   1.779   4.656   4.478
   46PEN     H6 1626   1.878   4.678   4.654
   46PEN     C7 1627   1.559   4.552   4.499
   46PEN     C8 1628   1.477   4.484   4.721
   46PEN     C9 1629   1.618   4.523   4.920
   46PEN    H10 1630   1.797   4.610   4.875
   46PEN    C11 1631   1.879   4.714   4.392
   46PEN    C12 1632   1.657   4.608   4.418
   46PEN    H13 1633   1.479   4.520   4.459
   46PEN    H14 1634   1.395   4.452   4.684
   46PEN    C15 1635   1.495   4.474   4.860
   46PEN    C16 1636   1.633   4.511   5.060
   46PEN    C17 1637   1.859   4.724   4.258
   46PEN    H18 1638   1.960   4.747   4.429
   46PEN    C19 1639   1.640   4.621   4.276
   46PEN    C20 1640   1.395   4.417   4.943
   46PEN    C21 1641   1.536   4.454   5.141
   46PEN    H22 1642   1.713   4.542   5.100
   46PEN    C23 1643   1.738   4.676   4.200
   46PEN    H24 1644   1.926   4.763   4.203
   46PEN    H25 1645   1.560   4.590   4.235
   46PEN    H26 1646   1.315   4.384   4.904
   46PEN    C27 1647   1.413   4.406   5.081
   46PEN    C28 1648   1.552   4.442   5.283
   46PEN    H29 1649   1.726   4.682   4.106
   46PEN    C30 1650   1.314   4.348   5.167
   46PEN    C31 1651   1.454   4.386   5.359
   46PEN    H32 1652   1.632   4.472   5.324
   46PEN    C33 1653   1.333   4.338   5.301
   46PEN    H34 1654   1.233   4.315   5.129
   46PEN    H35 1655   1.466   4.380   5.453
   46PEN    H36 1656   1.267   4.299   5.356
   47PEN     C1 1657   1.545   4.801   6.266
   47PEN     C2 1658   1.445   4.744   6.349
   47PEN     C3 1659   1.668   4.850   6.326
   47PEN     C4 1660   1.527   4.812   6.127
   47PEN     C5 1661   1.463   4.734   6.486
   47PEN     H6 1662   1.365   4.712   6.310
   47PEN     C7 1663   1.683   4.838   6.465
   47PEN     C8 1664   1.766   4.906   6.243
   47PEN     C9 1665   1.625   4.867   6.044
   47PEN    H10 1666   1.445   4.780   6.090
   47PEN    C11 1667   1.364   4.676   6.573
   47PEN    C12 1668   1.586   4.782   6.546
   47PEN    H13 1669   1.764   4.870   6.505
   47PEN    H14 1670   1.847   4.938   6.280
   47PEN    C15 1671   1.748   4.916   6.104
   47PEN    C16 1672   1.609   4.879   5.905
   47PEN    C17 1673   1.384   4.666   6.706
   47PEN    H18 1674   1.283   4.643   6.535
   47PEN    C19 1675   1.602   4.769   6.689
   47PEN    C20 1676   1.847   4.973   6.021
   47PEN    C21 1677   1.707   4.936   5.824
   47PEN    H22 1678   1.529   4.848   5.865
   47PEN    C23 1679   1.504   4.714   6.765
   47PEN    H24 1680   1.317   4.627   6.761
   47PEN    H25 1681   1.682   4.800   6.730
   47PEN    H26 1682   1.928   5.005   6.060
   47PEN    C27 1683   1.829   4.983   5.884
   47PEN    C28 1684   1.690   4.948   5.681
   47PEN    H29 1685   1.516   4.708   6.859
   47PEN    C30 1686   1.929   5.042   5.797
   47PEN    C31 1687   1.788   5.003   5.605
   47PEN    H32 1688   1.610   4.918   5.640
   47PEN    C33 1689   1.909   5.052   5.664
   47PEN    H34 1690   2.010   5.074   5.835
   47PEN    H35 1691   1.776   5.010   5.511
   47PEN    H36 1692   1.976   5.091   5.609
   48PEN     C1 1693   1.427   1.957   3.293
   48PEN     C2 1694   1.526   2.014   3.210
   48PEN     C3 1695   1.304   1.908   3.233
   48PEN     C4 1696   1.445   1.947   3.432
   48PEN     C5 1697   1.508   2.024   3.072
   48PEN     H6 1698   1.607   2.046   3.249
   48PEN     C7 1699   1.288   1.920   3.093
   48PEN     C8 1700   1.206   1.853   3.316
   48PEN     C9 1701   1.347   1.891   3.515
   48PEN    H10 1702   1.526   1.979   3.469
   48PEN    C11 1703   1.608   2.083   2.986
   48PEN    C12 1704   1.386   1.977   3.012
   48PEN    H13 1705   1.208   1.889   3.053
   48PEN    H14 1706   1.124   1.821   3.278
   48PEN    C15 1707   1.224   1.842   3.454
   48PEN    C16 1708   1.362   1.879   3.654
   48PEN    C17 1709   1.588   2.093   2.852
   48PEN    H18 1710   1.689   2.115   3.023
   48PEN    C19 1711   1.369   1.989   2.870
   48PEN    C20 1712   1.124   1.785   3.538
   48PEN    C21 1713   1.265   1.823   3.735
   48PEN    H22 1714   1.442   1.911   3.694
   48PEN    C23 1715   1.467   2.045   2.794
   48PEN    H24 1716   1.655   2.132   2.797
   48PEN    H25 1717   1.289   1.959   2.829
   48PEN    H26 1718   1.044   1.753   3.499
   48PEN    C27 1719   1.142   1.775   3.675
   48PEN    C28 1720   1.281   1.810   3.877
   48PEN    H29 1721   1.455   2.051   2.700
   48PEN    C30 1722   1.043   1.717   3.761
   48PEN    C31 1723   1.183   1.755   3.953
   48PEN    H32 1724   1.361   1.841   3.918
   48PEN    C33 1725   1.062   1.707   3.895
   48PEN    H34 1726   0.962   1.684   3.724
   48PEN    H35 1727   1.195   1.749   4.047
   48PEN    H36 1728   0.996   1.668   3.950
   49PEN     C1 1729   1.394   3.818   2.049
   49PEN     C2 1730   1.295   3.761   2.132
   49PEN     C3 1731   1.517   3.867   2.109
   49PEN     C4 1732   1.376   3.829   1.910
   49PEN     C5 1733   1.313   3.751   2.269
   49PEN     H6 1734   1.215   3.729   2.093
   49PEN     C7 1735   1.533   3.855   2.248
   49PEN     C8 1736   1.615   3.923   2.026
   49PEN     C9 1737   1.474   3.884   1.827
   49PEN    H10 1738   1.295   3.797   1.873
   49PEN    C11 1739   1.213   3.693   2.356
   49PEN    C12 1740   1.435   3.799   2.329
   49PEN    H13 1741   1.613   3.887   2.288
   49PEN    H14 1742   1.697   3.955   2.063
   49PEN    C15 1743   1.598   3.933   1.887
   49PEN    C16 1744   1.459   3.896   1.688
   49PEN    C17 1745   1.233   3.683   2.489
   49PEN    H18 1746   1.132   3.660   2.318
   49PEN    C19 1747   1.452   3.786   2.471
   49PEN    C20 1748   1.697   3.990   1.804
   49PEN    C21 1749   1.556   3.953   1.607
   49PEN    H22 1750   1.379   3.864   1.648
   49PEN    C23 1751   1.354   3.731   2.548
   49PEN    H24 1752   1.166   3.644   2.544
   49PEN    H25 1753   1.532   3.817   2.513
   49PEN    H26 1754   1.777   4.022   1.843
   49PEN    C27 1755   1.679   4.000   1.667
   49PEN    C28 1756   1.540   3.965   1.464
   49PEN    H29 1757   1.366   3.725   2.642
   49PEN    C30 1758   1.778   4.059   1.580
   49PEN    C31 1759   1.638   4.020   1.388
   49PEN    H32 1760   1.460   3.935   1.423
   49PEN    C33 1761   1.759   4.069   1.447
   49PEN    H34 1762   1.859   4.091   1.618
   49PEN    H35 1763   1.626   4.027   1.294
   49PEN    H36 1764   1.826   4.108   1.392
   50PEN     C1 1765   1.327   1.302   0.482
   50PEN     C2 1766   1.426   1.359   0.398
   50PEN     C3 1767   1.204   1.253   0.421
   50PEN     C4 1768   1.345   1.292   0.620
   50PEN     C5 1769   1.408   1.369   0.261
   50PEN     H6 1770   1.506   1.391   0.437
   50PEN     C7 1771   1.188   1.265   0.282
   50PEN     C8 1772   1.105   1.197   0.504
   50PEN     C9 1773   1.246   1.236   0.703
   50PEN    H10 1774   1.426   1.323   0.658
   50PEN    C11 1775   1.508   1.428   0.175
   50PEN    C12 1776   1.285   1.322   0.201
   50PEN    H13 1777   1.108   1.233   0.242
   50PEN    H14 1778   1.024   1.166   0.467
   50PEN    C15 1779   1.123   1.187   0.643
   50PEN    C16 1780   1.262   1.224   0.843
   50PEN    C17 1781   1.488   1.437   0.041
   50PEN    H18 1782   1.589   1.460   0.212
   50PEN    C19 1783   1.269   1.334   0.059
   50PEN    C20 1784   1.024   1.130   0.726
   50PEN    C21 1785   1.164   1.167   0.924
   50PEN    H22 1786   1.342   1.256   0.883
   50PEN    C23 1787   1.367   1.389  -0.017
   50PEN    H24 1788   1.555   1.477  -0.014
   50PEN    H25 1789   1.189   1.303   0.018
   50PEN    H26 1790   0.944   1.098   0.687
   50PEN    C27 1791   1.042   1.120   0.864
   50PEN    C28 1792   1.181   1.155   1.066
   50PEN    H29 1793   1.355   1.396  -0.111
   50PEN    C30 1794   0.942   1.061   0.950
   50PEN    C31 1795   1.083   1.100   1.142
   50PEN    H32 1796   1.261   1.186   1.107
   50PEN    C33 1797   0.962   1.052   1.083
   50PEN    H34 1798   0.861   1.029   0.912
   50PEN    H35 1799   1.095   1.093   1.236
   50PEN    H36 1800   0.895   1.012   1.138
   51PEN     C1 1801   1.604   0.858   0.463
   51PEN     C2 1802   1.703   0.857   0.361
   51PEN     C3 1803   1.480   0.931   0.440
   51PEN     C4 1804   1.621   0.790   0.584
   51PEN     C5 1805   1.683   0.923   0.241
   51PEN     H6 1806   1.784   0.811   0.376
   51PEN     C7 1807   1.463   0.998   0.317
   51PEN     C8 1808   1.382   0.931   0.540
   51PEN     C9 1809   1.524   0.790   0.685
   51PEN    H10 1810   1.703   0.743   0.597
   51PEN    C11 1811   1.782   0.922   0.137
   51PEN    C12 1812   1.560   0.996   0.218
   51PEN    H13 1813   1.383   1.047   0.302
   51PEN    H14 1814   1.301   0.979   0.527
   51PEN    C15 1815   1.399   0.863   0.662
   51PEN    C16 1816   1.541   0.723   0.807
   51PEN    C17 1817   1.761   0.986   0.020
   51PEN    H18 1818   1.863   0.875   0.151
   51PEN    C19 1819   1.543   1.062   0.093
   51PEN    C20 1820   1.301   0.864   0.763
   51PEN    C21 1821   1.444   0.725   0.906
   51PEN    H22 1822   1.621   0.674   0.822
   51PEN    C23 1823   1.639   1.057  -0.003
   51PEN    H24 1824   1.827   0.984  -0.048
   51PEN    H25 1825   1.463   1.110   0.076
   51PEN    H26 1826   1.220   0.911   0.749
   51PEN    C27 1827   1.321   0.798   0.883
   51PEN    C28 1828   1.461   0.659   1.031
   51PEN    H29 1829   1.625   1.102  -0.086
   51PEN    C30 1830   1.222   0.799   0.987
   51PEN    C31 1831   1.365   0.664   1.127
   51PEN    H32 1832   1.541   0.611   1.048
   51PEN    C33 1833   1.243   0.735   1.104
   51PEN    H34 1834   1.141   0.846   0.974
   51PEN    H35 1835   1.379   0.619   1.210
   51PEN    H36 1836   1.177   0.737   1.172
   52PEN     C1 1837   1.623   2.614   4.879
   52PEN     C2 1838   1.525   2.615   4.980
   52PEN     C3 1839   1.748   2.541   4.902
   52PEN     C4 1840   1.606   2.682   4.757
   52PEN     C5 1841   1.545   2.549   5.101
   52PEN     H6 1842   1.444   2.661   4.966
   52PEN     C7 1843   1.765   2.474   5.024
   52PEN     C8 1844   1.845   2.541   4.801
   52PEN     C9 1845   1.704   2.682   4.657
   52PEN    H10 1846   1.525   2.729   4.744
   52PEN    C11 1847   1.446   2.550   5.204
   52PEN    C12 1848   1.668   2.476   5.123
   52PEN    H13 1849   1.845   2.425   5.039
   52PEN    H14 1850   1.927   2.493   4.814
   52PEN    C15 1851   1.828   2.609   4.680
   52PEN    C16 1852   1.687   2.749   4.534
   52PEN    C17 1853   1.467   2.486   5.321
   52PEN    H18 1854   1.365   2.597   5.191
   52PEN    C19 1855   1.685   2.410   5.249
   52PEN    C20 1856   1.927   2.608   4.578
   52PEN    C21 1857   1.784   2.747   4.435
   52PEN    H22 1858   1.607   2.798   4.519
   52PEN    C23 1859   1.589   2.415   5.344
   52PEN    H24 1860   1.401   2.488   5.389
   52PEN    H25 1861   1.765   2.362   5.265
   52PEN    H26 1862   2.008   2.561   4.593
   52PEN    C27 1863   1.907   2.674   4.458
   52PEN    C28 1864   1.767   2.813   4.310
   52PEN    H29 1865   1.603   2.370   5.427
   52PEN    C30 1866   2.006   2.672   4.354
   52PEN    C31 1867   1.863   2.808   4.214
   52PEN    H32 1868   1.687   2.861   4.294
   52PEN    C33 1869   1.985   2.737   4.237
   52PEN    H34 1870   2.087   2.626   4.368
   52PEN    H35 1871   1.849   2.853   4.131
   52PEN    H36 1872   2.051   2.735   4.170
   53PEN     C1 1873   1.678   1.626   0.463
   53PEN     C2 1874   1.776   1.625   0.361
   53PEN     C3 1875   1.554   1.699   0.440
   53PEN     C4 1876   1.695   1.558   0.584
   53PEN     C5 1877   1.757   1.691   0.241
   53PEN     H6 1878   1.858   1.578   0.376
   53PEN     C7 1879   1.537   1.766   0.317
   53PEN     C8 1880   1.456   1.699   0.540
   53PEN     C9 1881   1.597   1.558   0.685
   53PEN    H10 1882   1.776   1.510   0.597
   53PEN    C11 1883   1.855   1.689   0.137
   53PEN    C12 1884   1.634   1.764   0.218
   53PEN    H13 1885   1.456   1.815   0.302
   53PEN    H14 1886   1.375   1.746   0.527
   53PEN    C15 1887   1.473   1.631   0.662
   53PEN    C16 1888   1.615   1.491   0.807
   53PEN    C17 1889   1.834   1.754   0.020
   53PEN    H18 1890   1.937   1.643   0.151
   53PEN    C19 1891   1.617   1.830   0.093
   53PEN    C20 1892   1.375   1.632   0.763
   53PEN    C21 1893   1.517   1.493   0.906
   53PEN    H22 1894   1.695   1.442   0.822
   53PEN    C23 1895   1.712   1.825  -0.003
   53PEN    H24 1896   1.901   1.751  -0.048
   53PEN    H25 1897   1.536   1.878   0.076
   53PEN    H26 1898   1.293   1.678   0.749
   53PEN    C27 1899   1.394   1.566   0.883
   53PEN    C28 1900   1.534   1.427   1.031
   53PEN    H29 1901   1.699   1.870  -0.086
   53PEN    C30 1902   1.296   1.567   0.987
   53PEN    C31 1903   1.439   1.432   1.127
   53PEN    H32 1904   1.615   1.379   1.048
   53PEN    C33 1905   1.317   1.503   1.104
   53PEN    H34 1906   1.214   1.614   0.974
   53PEN    H35 1907   1.453   1.387   1.210
   53PEN    H36 1908   1.250   1.505   1.172
   54PEN     C1 1909   1.450   1.191   2.067
   54PEN     C2 1910   1.351   1.191   2.169
   54PEN     C3 1911   1.574   1.118   2.090
   54PEN     C4 1912   1.433   1.259   1.946
   54PEN     C5 1913   1.371   1.125   2.289
   54PEN     H6 1914   1.270   1.238   2.155
   54PEN     C7 1915   1.591   1.050   2.213
   54PEN     C8 1916   1.672   1.118   1.990
   54PEN     C9 1917   1.530   1.258   1.846
   54PEN    H10 1918   1.351   1.306   1.933
   54PEN    C11 1919   1.272   1.127   2.393
   54PEN    C12 1920   1.494   1.053   2.312
   54PEN    H13 1921   1.671   1.002   2.228
   54PEN    H14 1922   1.753   1.070   2.003
   54PEN    C15 1923   1.655   1.186   1.869
   54PEN    C16 1924   1.513   1.326   1.723
   54PEN    C17 1925   1.293   1.063   2.510
   54PEN    H18 1926   1.191   1.174   2.379
   54PEN    C19 1927   1.511   0.987   2.437
   54PEN    C20 1928   1.753   1.185   1.767
   54PEN    C21 1929   1.610   1.323   1.624
   54PEN    H22 1930   1.433   1.375   1.708
   54PEN    C23 1931   1.415   0.991   2.533
   54PEN    H24 1932   1.227   1.065   2.578
   54PEN    H25 1933   1.591   0.939   2.454
   54PEN    H26 1934   1.834   1.138   1.781
   54PEN    C27 1935   1.733   1.251   1.647
   54PEN    C28 1936   1.593   1.389   1.499
   54PEN    H29 1937   1.429   0.947   2.616
   54PEN    C30 1938   1.832   1.249   1.543
   54PEN    C31 1939   1.689   1.385   1.403
   54PEN    H32 1940   1.513   1.437   1.482
   54PEN    C33 1941   1.811   1.314   1.426
   54PEN    H34 1942   1.913   1.202   1.557
   54PEN    H35 1943   1.675   1.430   1.320
   54PEN    H36 1944   1.877   1.311   1.358
   55PEN     C1 1945   1.705   1.513   3.274
   55PEN     C2 1946   1.803   1.513   3.172
   55PEN     C3 1947   1.580   1.586   3.251
   55PEN     C4 1948   1.722   1.445   3.396
   55PEN     C5 1949   1.784   1.579   3.052
   55PEN     H6 1950   1.885   1.466   3.187
   55PEN     C7 1951   1.563   1.654   3.129
   55PEN     C8 1952   1.483   1.587   3.352
   55PEN     C9 1953   1.624   1.446   3.496
   55PEN    H10 1954   1.803   1.398   3.409
   55PEN    C11 1955   1.882   1.577   2.949
   55PEN    C12 1956   1.660   1.651   3.030
   55PEN    H13 1957   1.483   1.703   3.114
   55PEN    H14 1958   1.401   1.634   3.338
   55PEN    C15 1959   1.500   1.519   3.473
   55PEN    C16 1960   1.641   1.378   3.619
   55PEN    C17 1961   1.861   1.641   2.831
   55PEN    H18 1962   1.963   1.530   2.962
   55PEN    C19 1963   1.643   1.717   2.904
   55PEN    C20 1964   1.401   1.519   3.575
   55PEN    C21 1965   1.544   1.381   3.717
   55PEN    H22 1966   1.721   1.329   3.634
   55PEN    C23 1967   1.739   1.713   2.809
   55PEN    H24 1968   1.927   1.639   2.764
   55PEN    H25 1969   1.563   1.765   2.888
   55PEN    H26 1970   1.320   1.566   3.560
   55PEN    C27 1971   1.421   1.453   3.695
   55PEN    C28 1972   1.561   1.315   3.843
   55PEN    H29 1973   1.725   1.757   2.726
   55PEN    C30 1974   1.322   1.455   3.799
   55PEN    C31 1975   1.465   1.319   3.939
   55PEN    H32 1976   1.641   1.267   3.859
   55PEN    C33 1977   1.344   1.391   3.916
   55PEN    H34 1978   1.241   1.502   3.785
   55PEN    H35 1979   1.479   1.275   4.022
   55PEN    H36 1980   1.277   1.393   3.983
   56PEN     C1 1981   1.550   1.846   4.879
   56PEN     C2 1982   1.451   1.847   4.980
   56PEN     C3 1983   1.674   1.773   4.902
   56PEN     C4 1984   1.533   1.914   4.757
   56PEN     C5 1985   1.471   1.781   5.101
   56PEN     H6 1986   1.370   1.894   4.966
   56PEN     C7 1987   1.691   1.706   5.024
   56PEN     C8 1988   1.772   1.773   4.801
   56PEN     C9 1989   1.630   1.914   4.657
   56PEN    H10 1990   1.451   1.962   4.744
   56PEN    C11 1991   1.373   1.783   5.204
   56PEN    C12 1992   1.594   1.708   5.123
   56PEN    H13 1993   1.771   1.657   5.039
   56PEN    H14 1994   1.853   1.726   4.814
   56PEN    C15 1995   1.755   1.841   4.680
   56PEN    C16 1996   1.613   1.981   4.534
   56PEN    C17 1997   1.394   1.718   5.321
   56PEN    H18 1998   1.291   1.829   5.191
   56PEN    C19 1999   1.611   1.642   5.249
   56PEN    C20 2000   1.853   1.840   4.578
   56PEN    C21 2001   1.711   1.979   4.435
   56PEN    H22 2002   1.533   2.030   4.519
   56PEN    C23 2003   1.515   1.647   5.344
   56PEN    H24 2004   1.327   1.721   5.389
   56PEN    H25 2005   1.691   1.594   5.265
   56PEN    H26 2006   1.935   1.794   4.593
   56PEN    C27 2007   1.834   1.906   4.458
   56PEN    C28 2008   1.693   2.045   4.310
   56PEN    H29 2009   1.529   1.602   5.427
   56PEN    C30 2010   1.932   1.905   4.354
   56PEN    C31 2011   1.789   2.040   4.214
   56PEN    H32 2012   1.613   2.093   4.294
   56PEN    C33 2013   1.911   1.969   4.237
   56PEN    H34 2014   2.014   1.858   4.368
   56PEN    H35 2015   1.775   2.085   4.131
   56PEN    H36 2016   1.978   1.967   4.170
   57PEN     C1 2017   1.523   1.959   2.067
   57PEN     C2 2018   1.425   1.959   2.169
   57PEN     C3 2019   1.648   1.886   2.090
   57PEN     C4 2020   1.506   2.027   1.946
   57PEN     C5 2021   1.444   1.893   2.289
   57PEN     H6 2022   1.343   2.006   2.155
   57PEN     C7 2023   1.665   1.818   2.213
   57PEN     C8 2024   1.745   1.885   1.990
   57PEN     C9 2025   1.604   2.026   1.846
   57PEN    H10 2026   1.425   2.074   1.933
   57PEN    C11 2027   1.346   1.895   2.393
   57PEN    C12 2028   1.567   1.821   2.312
   57PEN    H13 2029   1.745   1.769   2.228
   57PEN    H14 2030   1.827   1.838   2.003
   57PEN    C15 2031   1.728   1.953   1.869
   57PEN    C16 2032   1.587   2.094   1.723
   57PEN    C17 2033   1.367   1.831   2.510
   57PEN    H18 2034   1.264   1.942   2.379
   57PEN    C19 2035   1.585   1.755   2.437
   57PEN    C20 2036   1.827   1.953   1.767
   57PEN    C21 2037   1.684   2.091   1.624
   57PEN    H22 2038   1.507   2.143   1.708
   57PEN    C23 2039   1.489   1.759   2.533
   57PEN    H24 2040   1.300   1.833   2.578
   57PEN    H25 2041   1.665   1.707   2.454
   57PEN    H26 2042   1.908   1.906   1.781
   57PEN    C27 2043   1.807   2.019   1.647
   57PEN    C28 2044   1.667   2.157   1.499
   57PEN    H29 2045   1.503   1.715   2.616
   57PEN    C30 2046   1.905   2.017   1.543
   57PEN    C31 2047   1.763   2.153   1.403
   57PEN    H32 2048   1.586   2.205   1.482
   57PEN    C33 2049   1.884   2.081   1.426
   57PEN    H34 2050   1.987   1.970   1.557
   57PEN    H35 2051   1.749   2.197   1.320
   57PEN    H36 2052   1.951   2.079   1.358
   58PEN     C1 2053   1.879   2.936   6.086
   58PEN     C2 2054   1.977   2.936   5.984
   58PEN     C3 2055   1.754   3.009   6.063
   58PEN     C4 2056   1.896   2.868   6.207
   58PEN     C5 2057   1.957   3.002   5.864
   58PEN     H6 2058   2.058   2.889   5.998
   58PEN     C7 2059   1.737   3.077   5.940
   58PEN     C8 2060   1.657   3.010   6.163
   58PEN     C9 2061   1.798   2.869   6.307
   58PEN    H10 2062   1.977   2.821   6.220
   58PEN    C11 2063   2.056   3.000   5.760
   58PEN    C12 2064   1.834   3.074   5.841
   58PEN    H13 2065   1.657   3.126   5.925
   58PEN    H14 2066   1.575   3.057   6.150
   58PEN    C15 2067   1.674   2.942   6.284
   58PEN    C16 2068   1.815   2.801   6.430
   58PEN    C17 2069   2.035   3.065   5.643
   58PEN    H18 2070   2.137   2.953   5.774
   58PEN    C19 2071   1.817   3.140   5.716
   58PEN    C20 2072   1.575   2.942   6.386
   58PEN    C21 2073   1.718   2.804   6.529
   58PEN    H22 2074   1.895   2.753   6.445
   58PEN    C23 2075   1.913   3.136   5.620
   58PEN    H24 2076   2.101   3.062   5.575
   58PEN    H25 2077   1.737   3.188   5.699
   58PEN    H26 2078   1.494   2.989   6.372
   58PEN    C27 2079   1.595   2.876   6.506
   58PEN    C28 2080   1.735   2.738   6.654
   58PEN    H29 2081   1.899   3.180   5.537
   58PEN    C30 2082   1.496   2.878   6.610
   58PEN    C31 2083   1.639   2.742   6.750
   58PEN    H32 2084   1.815   2.690   6.671
   58PEN    C33 2085   1.517   2.814   6.727
   58PEN    H34 2086   1.415   2.925   6.596
   58PEN    H35 2087   1.653   2.698   6.833
   58PEN    H36 2088   1.451   2.816   6.795
   59PEN     C1 2089   1.778   2.281   3.274
   59PEN     C2 2090   1.877   2.281   3.172
   59PEN     C3 2091   1.654   2.354   3.251
   59PEN     C4 2092   1.795   2.213   3.396
   59PEN     C5 2093   1.857   2.346   3.052
   59PEN     H6 2094   1.958   2.234   3.187
   59PEN     C7 2095   1.637   2.422   3.129
   59PEN     C8 2096   1.556   2.354   3.352
   59PEN     C9 2097   1.698   2.214   3.496
   59PEN    H10 2098   1.877   2.166   3.409
   59PEN    C11 2099   1.956   2.345   2.949
   59PEN    C12 2100   1.734   2.419   3.030
   59PEN    H13 2101   1.557   2.470   3.114
   59PEN    H14 2102   1.475   2.402   3.338
   59PEN    C15 2103   1.573   2.286   3.473
   59PEN    C16 2104   1.715   2.146   3.619
   59PEN    C17 2105   1.934   2.409   2.831
   59PEN    H18 2106   2.037   2.298   2.962
   59PEN    C19 2107   1.717   2.485   2.904
   59PEN    C20 2108   1.475   2.287   3.575
   59PEN    C21 2109   1.618   2.149   3.717
   59PEN    H22 2110   1.795   2.097   3.634
   59PEN    C23 2111   1.813   2.481   2.809
   59PEN    H24 2112   2.001   2.407   2.764
   59PEN    H25 2113   1.637   2.533   2.888
   59PEN    H26 2114   1.393   2.334   3.560
   59PEN    C27 2115   1.494   2.221   3.695
   59PEN    C28 2116   1.635   2.083   3.843
   59PEN    H29 2117   1.799   2.525   2.726
   59PEN    C30 2118   1.396   2.223   3.799
   59PEN    C31 2119   1.539   2.087   3.939
   59PEN    H32 2120   1.715   2.035   3.859
   59PEN    C33 2121   1.417   2.158   3.916
   59PEN    H34 2122   1.315   2.270   3.785
   59PEN    H35 2123   1.553   2.042   4.022
   59PEN    H36 2124   1.350   2.161   3.983
   60PEN     C1 2125   1.949   4.257   1.869
   60PEN     C2 2126   2.047   4.256   1.767
   60PEN     C3 2127   1.825   4.330   1.846
   60PEN     C4 2128   1.966   4.189   1.990
   60PEN     C5 2129   2.028   4.322   1.647
   60PEN     H6 2130   2.129   4.210   1.781
   60PEN     C7 2131   1.808   4.398   1.723
   60PEN     C8 2132   1.727   4.330   1.946
   60PEN     C9 2133   1.868   4.189   2.090
   60PEN    H10 2134   2.047   4.142   2.003
   60PEN    C11 2135   2.126   4.321   1.543
   60PEN    C12 2136   1.905   4.395   1.624
   60PEN    H13 2137   1.727   4.446   1.708
   60PEN    H14 2138   1.646   4.378   1.933
   60PEN    C15 2139   1.744   4.262   2.067
   60PEN    C16 2140   1.885   4.122   2.213
   60PEN    C17 2141   2.105   4.385   1.426
   60PEN    H18 2142   2.208   4.274   1.557
   60PEN    C19 2143   1.888   4.461   1.499
   60PEN    C20 2144   1.646   4.263   2.169
   60PEN    C21 2145   1.788   4.125   2.312
   60PEN    H22 2146   1.966   4.073   2.228
   60PEN    C23 2147   1.983   4.457   1.403
   60PEN    H24 2148   2.172   4.383   1.358
   60PEN    H25 2149   1.807   4.509   1.482
   60PEN    H26 2150   1.564   4.310   2.155
   60PEN    C27 2151   1.665   4.197   2.289
   60PEN    C28 2152   1.805   4.059   2.437
   60PEN    H29 2153   1.970   4.501   1.320
   60PEN    C30 2154   1.567   4.199   2.393
   60PEN    C31 2155   1.710   4.063   2.533
   60PEN    H32 2156   1.886   4.010   2.454
   60PEN    C33 2157   1.588   4.134   2.510
   60PEN    H34 2158   1.485   4.246   2.379
   60PEN    H35 2159   1.723   4.018   2.616
   60PEN    H36 2160   1.521   4.137   2.578
   61PEN     C1 2161   1.844   4.918   4.879
   61PEN     C2 2162   1.746   4.918   4.980
   61PEN     C3 2163   1.969   4.845   4.902
   61PEN     C4 2164   1.827   4.986   4.757
   61PEN     C5 2165   1.765   4.852   5.101
   61PEN     H6 2166   1.664   4.965   4.966
   61PEN     C7 2167   1.986   4.777   5.024
   61PEN     C8 2168   2.066   4.844   4.801
   61PEN     C9 2169   1.925   4.985   4.657
   61PEN    H10 2170   1.746   5.033   4.744
   61PEN    C11 2171   1.667   4.854   5.204
   61PEN    C12 2172   1.888   4.780   5.123
   61PEN    H13 2173   2.066   4.728   5.039
   61PEN    H14 2174   2.148   4.797   4.814
   61PEN    C15 2175   2.049   4.912   4.680
   61PEN    C16 2176   1.908   5.053   4.534
   61PEN    C17 2177   1.688   4.790   5.321
   61PEN    H18 2178   1.586   4.901   5.191
   61PEN    C19 2179   1.906   4.714   5.249
   61PEN    C20 2180   2.148   4.912   4.578
   61PEN    C21 2181   2.005   5.050   4.435
   61PEN    H22 2182   1.828   5.102   4.519
   61PEN    C23 2183   1.810   4.718   5.344
   61PEN    H24 2184   1.621   4.792   5.389
   61PEN    H25 2185   1.986   4.666   5.265
   61PEN    H26 2186   2.229   4.865   4.593
   61PEN    C27 2187   2.128   4.978   4.458
   61PEN    C28 2188   1.988   5.116   4.310
   61PEN    H29 2189   1.824   4.674   5.427
   61PEN    C30 2190   2.227   4.976   4.354
   61PEN    C31 2191   2.084   5.112   4.214
   61PEN    H32 2192   1.908   5.164   4.294
   61PEN    C33 2193   2.205   5.040   4.237
   61PEN    H34 2194   2.308   4.929   4.368
   61PEN    H35 2195   2.070   5.156   4.131
   61PEN    H36 2196   2.272   5.038   4.170
   62PEN     C1 2197   2.099   5.240   6.086
   62PEN     C2 2198   2.198   5.240   5.984
   62PEN     C3 2199   1.975   5.313   6.063
   62PEN     C4 2200   2.116   5.172   6.207
   62PEN     C5 2201   2.178   5.305   5.864
   62PEN     H6 2202   2.279   5.193   5.998
   62PEN     C7 2203   1.958   5.381   5.940
   62PEN     C8 2204   1.877   5.313   6.163
   62PEN     C9 2205   2.019   5.173   6.307
   62PEN    H10 2206   2.198   5.125   6.220
   62PEN    C11 2207   2.277   5.304   5.760
   62PEN    C12 2208   2.055   5.378   5.841
   62PEN    H13 2209   1.878   5.429   5.925
   62PEN    H14 2210   1.796   5.361   6.150
   62PEN    C15 2211   1.894   5.245   6.284
   62PEN    C16 2212   2.036   5.105   6.430
   62PEN    C17 2213   2.256   5.368   5.643
   62PEN    H18 2214   2.358   5.257   5.774
   62PEN    C19 2215   2.038   5.444   5.716
   62PEN    C20 2216   1.796   5.246   6.386
   62PEN    C21 2217   1.939   5.108   6.529
   62PEN    H22 2218   2.116   5.056   6.445
   62PEN    C23 2219   2.134   5.440   5.620
   62PEN    H24 2220   2.322   5.366   5.575
   62PEN    H25 2221   1.958   5.492   5.699
   62PEN    H26 2222   1.715   5.293   6.372
   62PEN    C27 2223   1.816   5.180   6.506
   62PEN    C28 2224   1.956   5.042   6.654
   62PEN    H29 2225   2.120   5.484   5.537
   62PEN    C30 2226   1.717   5.182   6.610
   62PEN    C31 2227   1.860   5.046   6.750
   62PEN    H32 2228   2.036   4.993   6.671
   62PEN    C33 2229   1.738   5.117   6.727
   62PEN    H34 2230   1.636   5.229   6.596
   62PEN    H35 2231   1.874   5.001   6.833
   62PEN    H36 2232   1.672   5.120   6.795
   63PEN     C1 2233   1.752   2.394   0.463
   63PEN     C2 2234   1.850   2.393   0.361
   63PEN     C3 2235   1.627   2.466   0.440
   63PEN     C4 2236   1.769   2.326   0.584
   63PEN     C5 2237   1.830   2.459   0.241
   63PEN     H6 2238   1.931   2.346   0.376
   63PEN     C7 2239   1.610   2.534   0.317
   63PEN     C8 2240   1.530   2.467   0.540
   63PEN     C9 2241   1.671   2.326   0.685
   63PEN    H10 2242   1.850   2.278   0.597
   63PEN    C11 2243   1.929   2.457   0.137
   63PEN    C12 2244   1.707   2.531   0.218
   63PEN    H13 2245   1.530   2.583   0.302
   63PEN    H14 2246   1.448   2.514   0.527
   63PEN    C15 2247   1.547   2.399   0.662
   63PEN    C16 2248   1.688   2.258   0.807
   63PEN    C17 2249   1.908   2.522   0.020
   63PEN    H18 2250   2.010   2.410   0.151
   63PEN    C19 2251   1.690   2.597   0.093
   63PEN    C20 2252   1.448   2.399   0.763
   63PEN    C21 2253   1.591   2.261   0.906
   63PEN    H22 2254   1.768   2.210   0.822
   63PEN    C23 2255   1.786   2.593  -0.003
   63PEN    H24 2256   1.974   2.519  -0.048
   63PEN    H25 2257   1.610   2.646   0.076
   63PEN    H26 2258   1.367   2.446   0.749
   63PEN    C27 2259   1.468   2.334   0.883
   63PEN    C28 2260   1.608   2.195   1.031
   63PEN    H29 2261   1.772   2.638  -0.086
   63PEN    C30 2262   1.369   2.335   0.987
   63PEN    C31 2263   1.512   2.199   1.127
   63PEN    H32 2264   1.688   2.147   1.048
   63PEN    C33 2265   1.391   2.271   1.104
   63PEN    H34 2266   1.288   2.382   0.974
   63PEN    H35 2267   1.526   2.155   1.210
   63PEN    H36 2268   1.324   2.273   1.172
   64PEN     C1 2269   1.952   3.704   6.086
   64PEN     C2 2270   2.051   3.704   5.984
   64PEN     C3 2271   1.828   3.777   6.063
   64PEN     C4 2272   1.969   3.636   6.207
   64PEN     C5 2273   2.031   3.770   5.864
   64PEN     H6 2274   2.132   3.657   5.998
   64PEN     C7 2275   1.811   3.845   5.940
   64PEN     C8 2276   1.730   3.778   6.163
   64PEN     C9 2277   1.872   3.637   6.307
   64PEN    H10 2278   2.051   3.589   6.220
   64PEN    C11 2279   2.129   3.768   5.760
   64PEN    C12 2280   1.908   3.842   5.841
   64PEN    H13 2281   1.731   3.894   5.925
   64PEN    H14 2282   1.649   3.825   6.150
   64PEN    C15 2283   1.747   3.710   6.284
   64PEN    C16 2284   1.889   3.569   6.430
   64PEN    C17 2285   2.108   3.832   5.643
   64PEN    H18 2286   2.211   3.721   5.774
   64PEN    C19 2287   1.891   3.908   5.716
   64PEN    C20 2288   1.649   3.710   6.386
   64PEN    C21 2289   1.791   3.572   6.529
   64PEN    H22 2290   1.969   3.520   6.445
   64PEN    C23 2291   1.987   3.904   5.620
   64PEN    H24 2292   2.175   3.830   5.575
   64PEN    H25 2293   1.810   3.956   5.699
   64PEN    H26 2294   1.567   3.757   6.372
   64PEN    C27 2295   1.668   3.644   6.506
   64PEN    C28 2296   1.809   3.506   6.654
   64PEN    H29 2297   1.973   3.948   5.537
   64PEN    C30 2298   1.570   3.646   6.610
   64PEN    C31 2299   1.713   3.510   6.750
   64PEN    H32 2300   1.889   3.458   6.671
   64PEN    C33 2301   1.591   3.582   6.727
   64PEN    H34 2302   1.488   3.693   6.596
   64PEN    H35 2303   1.727   3.466   6.833
   64PEN    H36 2304   1.524   3.584   6.795
   65PEN     C1 2305   1.597   2.727   2.067
   65PEN     C2 2306   1.498   2.727   2.169
   65PEN     C3 2307   1.721   2.654   2.090
   65PEN     C4 2308   1.580   2.795   1.946
   65PEN     C5 2309   1.518   2.661   2.289
   65PEN     H6 2310   1.417   2.774   2.155
   65PEN     C7 2311   1.738   2.586   2.213
   65PEN     C8 2312   1.819   2.653   1.990
   65PEN     C9 2313   1.677   2.794   1.846
   65PEN    H10 2314   1.498   2.842   1.933
   65PEN    C11 2315   1.420   2.663   2.393
   65PEN    C12 2316   1.641   2.589   2.312
   65PEN    H13 2317   1.818   2.537   2.228
   65PEN    H14 2318   1.900   2.606   2.003
   65PEN    C15 2319   1.802   2.721   1.869
   65PEN    C16 2320   1.660   2.862   1.723
   65PEN    C17 2321   1.441   2.599   2.510
   65PEN    H18 2322   1.338   2.710   2.379
   65PEN    C19 2323   1.658   2.523   2.437
   65PEN    C20 2324   1.900   2.721   1.767
   65PEN    C21 2325   1.758   2.859   1.624
   65PEN    H22 2326   1.580   2.911   1.708
   65PEN    C23 2327   1.562   2.527   2.533
   65PEN    H24 2328   1.374   2.601   2.578
   65PEN    H25 2329   1.738   2.475   2.454
   65PEN    H26 2330   1.982   2.674   1.781
   65PEN    C27 2331   1.881   2.787   1.647
   65PEN    C28 2332   1.740   2.925   1.499
   65PEN    H29 2333   1.576   2.483   2.616
   65PEN    C30 2334   1.979   2.785   1.543
   65PEN    C31 2335   1.836   2.921   1.403
   65PEN    H32 2336   1.660   2.973   1.482
   65PEN    C33 2337   1.958   2.849   1.426
   65PEN    H34 2338   2.061   2.738   1.557
   65PEN    H35 2339   1.822   2.965   1.320
   65PEN    H36 2340   2.025   2.847   1.358
   66PEN     C1 2341   1.825   3.161   0.463
   66PEN     C2 2342   1.924   3.161   0.361
   66PEN     C3 2343   1.701   3.234   0.440
   66PEN     C4 2344   1.842   3.093   0.584
   66PEN     C5 2345   1.904   3.227   0.241
   66PEN     H6 2346   2.005   3.114   0.376
   66PEN     C7 2347   1.684   3.302   0.317
   66PEN     C8 2348   1.603   3.235   0.540
   66PEN     C9 2349   1.745   3.094   0.685
   66PEN    H10 2350   1.924   3.046   0.597
   66PEN    C11 2351   2.003   3.225   0.137
   66PEN    C12 2352   1.781   3.299   0.218
   66PEN    H13 2353   1.604   3.351   0.302
   66PEN    H14 2354   1.522   3.282   0.527
   66PEN    C15 2355   1.620   3.167   0.662
   66PEN    C16 2356   1.762   3.026   0.807
   66PEN    C17 2357   1.981   3.290   0.020
   66PEN    H18 2358   2.084   3.178   0.151
   66PEN    C19 2359   1.764   3.365   0.093
   66PEN    C20 2360   1.522   3.167   0.763
   66PEN    C21 2361   1.664   3.029   0.906
   66PEN    H22 2362   1.842   2.977   0.822
   66PEN    C23 2363   1.860   3.361  -0.003
   66PEN    H24 2364   2.048   3.287  -0.048
   66PEN    H25 2365   1.684   3.413   0.076
   66PEN    H26 2366   1.440   3.214   0.749
   66PEN    C27 2367   1.541   3.101   0.883
   66PEN    C28 2368   1.682   2.963   1.031
   66PEN    H29 2369   1.846   3.405  -0.086
   66PEN    C30 2370   1.443   3.103   0.987
   66PEN    C31 2371   1.586   2.967   1.127
   66PEN    H32 2372   1.762   2.915   1.048
   66PEN    C33 2373   1.464   3.039   1.104
   66PEN    H34 2374   1.362   3.150   0.974
   66PEN    H35 2375   1.600   2.923   1.210
   66PEN    H36 2376   1.397   3.041   1.172
   67PEN     C1 2377   1.805   2.169   6.086
   67PEN     C2 2378   1.903   2.168   5.984
   67PEN     C3 2379   1.680   2.241   6.063
   67PEN     C4 2380   1.822   2.101   6.207
   67PEN     C5 2381   1.884   2.234   5.864
   67PEN     H6 2382   1.985   2.121   5.998
   67PEN     C7 2383   1.663   2.309   5.940
   67PEN     C8 2384   1.583   2.242   6.163
   67PEN     C9 2385   1.724   2.101   6.307
   67PEN    H10 2386   1.903   2.053   6.220
   67PEN    C11 2387   1.982   2.232   5.760
   67PEN    C12 2388   1.761   2.306   5.841
   67PEN    H13 2389   1.583   2.358   5.925
   67PEN    H14 2390   1.502   2.289   6.150
   67PEN    C15 2391   1.600   2.174   6.284
   67PEN    C16 2392   1.741   2.033   6.430
   67PEN    C17 2393   1.961   2.297   5.643
   67PEN    H18 2394   2.064   2.185   5.774
   67PEN    C19 2395   1.744   2.372   5.716
   67PEN    C20 2396   1.502   2.174   6.386
   67PEN    C21 2397   1.644   2.036   6.529
   67PEN    H22 2398   1.822   1.985   6.445
   67PEN    C23 2399   1.839   2.368   5.620
   67PEN    H24 2400   2.028   2.294   5.575
   67PEN    H25 2401   1.663   2.421   5.699
   67PEN    H26 2402   1.420   2.221   6.372
   67PEN    C27 2403   1.521   2.109   6.506
   67PEN    C28 2404   1.661   1.970   6.654
   67PEN    H29 2405   1.825   2.413   5.537
   67PEN    C30 2406   1.423   2.110   6.610
   67PEN    C31 2407   1.566   1.974   6.750
   67PEN    H32 2408   1.742   1.922   6.671
   67PEN    C33 2409   1.444   2.046   6.727
   67PEN    H34 2410   1.341   2.157   6.596
   67PEN    H35 2411   1.579   1.930   6.833
   67PEN    H36 2412   1.377   2.048   6.795
   68PEN     C1 2413   1.999   4.585   3.274
   68PEN     C2 2414   2.098   4.584   3.172
   68PEN     C3 2415   1.875   4.658   3.251
   68PEN     C4 2416   2.016   4.517   3.396
   68PEN     C5 2417   2.078   4.650   3.052
   68PEN     H6 2418   2.179   4.537   3.187
   68PEN     C7 2419   1.858   4.725   3.129
   68PEN     C8 2420   1.777   4.658   3.352
   68PEN     C9 2421   1.919   4.517   3.496
   68PEN    H10 2422   2.098   4.469   3.409
   68PEN    C11 2423   2.176   4.648   2.949
   68PEN    C12 2424   1.955   4.723   3.030
   68PEN    H13 2425   1.778   4.774   3.114
   68PEN    H14 2426   1.696   4.705   3.338
   68PEN    C15 2427   1.794   4.590   3.473
   68PEN    C16 2428   1.936   4.449   3.619
   68PEN    C17 2429   2.155   4.713   2.831
   68PEN    H18 2430   2.258   4.601   2.962
   68PEN    C19 2431   1.938   4.788   2.904
   68PEN    C20 2432   1.696   4.591   3.575
   68PEN    C21 2433   1.838   4.452   3.717
   68PEN    H22 2434   2.016   4.401   3.634
   68PEN    C23 2435   2.033   4.784   2.809
   68PEN    H24 2436   2.222   4.710   2.764
   68PEN    H25 2437   1.857   4.837   2.888
   68PEN    H26 2438   1.614   4.637   3.560
   68PEN    C27 2439   1.715   4.525   3.695
   68PEN    C28 2440   1.856   4.386   3.843
   68PEN    H29 2441   2.020   4.829   2.726
   68PEN    C30 2442   1.617   4.526   3.799
   68PEN    C31 2443   1.760   4.391   3.939
   68PEN    H32 2444   1.936   4.338   3.859
   68PEN    C33 2445   1.638   4.462   3.916
   68PEN    H34 2446   1.535   4.573   3.785
   68PEN    H35 2447   1.774   4.346   4.022
   68PEN    H36 2448   1.571   4.464   3.983
   69PEN     C1 2449   1.899   3.929   0.463
   69PEN     C2 2450   1.997   3.929   0.361
   69PEN     C3 2451   1.774   4.002   0.440
   69PEN     C4 2452   1.916   3.861   0.584
   69PEN     C5 2453   1.978   3.995   0.241
   69PEN     H6 2454   2.079   3.882   0.376
   69PEN     C7 2455   1.757   4.070   0.317
   69PEN     C8 2456   1.677   4.003   0.540
   69PEN     C9 2457   1.818   3.862   0.685
   69PEN    H10 2458   1.997   3.814   0.597
   69PEN    C11 2459   2.076   3.993   0.137
   69PEN    C12 2460   1.855   4.067   0.218
   69PEN    H13 2461   1.677   4.119   0.302
   69PEN    H14 2462   1.595   4.050   0.527
   69PEN    C15 2463   1.694   3.935   0.662
   69PEN    C16 2464   1.835   3.794   0.807
   69PEN    C17 2465   2.055   4.057   0.020
   69PEN    H18 2466   2.158   3.946   0.151
   69PEN    C19 2467   1.837   4.133   0.093
   69PEN    C20 2468   1.595   3.935   0.763
   69PEN    C21 2469   1.738   3.797   0.906
   69PEN    H22 2470   1.915   3.745   0.822
   69PEN    C23 2471   1.933   4.129  -0.003
   69PEN    H24 2472   2.122   4.055  -0.048
   69PEN    H25 2473   1.757   4.181   0.076
   69PEN    H26 2474   1.514   3.982   0.749
   69PEN    C27 2475   1.615   3.869   0.883
   69PEN    C28 2476   1.755   3.731   1.031
   69PEN    H29 2477   1.919   4.173  -0.086
   69PEN    C30 2478   1.517   3.871   0.987
   69PEN    C31 2479   1.660   3.735   1.127
   69PEN    H32 2480   1.836   3.683   1.048
   69PEN    C33 2481   1.538   3.807   1.104
   69PEN    H34 2482   1.435   3.918   0.974
   69PEN    H35 2483   1.673   3.691   1.210
   69PEN    H36 2484   1.471   3.809   1.172
   70PEN     C1 2485   1.852   3.049   3.274
   70PEN     C2 2486   1.950   3.048   3.172
   70PEN     C3 2487   1.727   3.122   3.251
   70PEN     C4 2488   1.869   2.981   3.396
   70PEN     C5 2489   1.931   3.114   3.052
   70PEN     H6 2490   2.032   3.002   3.187
   70PEN     C7 2491   1.710   3.190   3.129
   70PEN     C8 2492   1.630   3.122   3.352
   70PEN     C9 2493   1.771   2.981   3.496
   70PEN    H10 2494   1.950   2.934   3.409
   70PEN    C11 2495   2.029   3.113   2.949
   70PEN    C12 2496   1.808   3.187   3.030
   70PEN    H13 2497   1.630   3.238   3.114
   70PEN    H14 2498   1.549   3.170   3.338
   70PEN    C15 2499   1.647   3.054   3.473
   70PEN    C16 2500   1.788   2.914   3.619
   70PEN    C17 2501   2.008   3.177   2.831
   70PEN    H18 2502   2.111   3.066   2.962
   70PEN    C19 2503   1.790   3.253   2.904
   70PEN    C20 2504   1.549   3.055   3.575
   70PEN    C21 2505   1.691   2.916   3.717
   70PEN    H22 2506   1.869   2.865   3.634
   70PEN    C23 2507   1.886   3.248   2.809
   70PEN    H24 2508   2.075   3.175   2.764
   70PEN    H25 2509   1.710   3.301   2.888
   70PEN    H26 2510   1.467   3.102   3.560
   70PEN    C27 2511   1.568   2.989   3.695
   70PEN    C28 2512   1.708   2.850   3.843
   70PEN    H29 2513   1.872   3.293   2.726
   70PEN    C30 2514   1.470   2.991   3.799
   70PEN    C31 2515   1.613   2.855   3.939
   70PEN    H32 2516   1.789   2.802   3.859
   70PEN    C33 2517   1.491   2.926   3.916
   70PEN    H34 2518   1.388   3.037   3.785
   70PEN    H35 2519   1.626   2.810   4.022
   70PEN    H36 2520   1.424   2.929   3.983
   71PEN     C1 2521   1.697   3.382   4.879
   71PEN     C2 2522   1.599   3.383   4.980
   71PEN     C3 2523   1.821   3.309   4.902
   71PEN     C4 2524   1.680   3.450   4.757
   71PEN     C5 2525   1.618   3.317   5.101
   71PEN     H6 2526   1.517   3.429   4.966
   71PEN     C7 2527   1.839   3.241   5.024
   71PEN     C8 2528   1.919   3.309   4.801
   71PEN     C9 2529   1.778   3.450   4.657
   71PEN    H10 2530   1.599   3.497   4.744
   71PEN    C11 2531   1.520   3.318   5.204
   71PEN    C12 2532   1.741   3.244   5.123
   71PEN    H13 2533   1.919   3.193   5.039
   71PEN    H14 2534   2.000   3.261   4.814
   71PEN    C15 2535   1.902   3.377   4.680
   71PEN    C16 2536   1.761   3.517   4.534
   71PEN    C17 2537   1.541   3.254   5.321
   71PEN    H18 2538   1.438   3.365   5.191
   71PEN    C19 2539   1.758   3.178   5.249
   71PEN    C20 2540   2.000   3.376   4.578
   71PEN    C21 2541   1.858   3.514   4.435
   71PEN    H22 2542   1.680   3.566   4.519
   71PEN    C23 2543   1.663   3.182   5.344
   71PEN    H24 2544   1.474   3.256   5.389
   71PEN    H25 2545   1.839   3.130   5.265
   71PEN    H26 2546   2.082   3.329   4.593
   71PEN    C27 2547   1.981   3.442   4.458
   71PEN    C28 2548   1.841   3.580   4.310
   71PEN    H29 2549   1.677   3.138   5.427
   71PEN    C30 2550   2.079   3.440   4.354
   71PEN    C31 2551   1.936   3.576   4.214
   71PEN    H32 2552   1.760   3.629   4.294
   71PEN    C33 2553   2.058   3.505   4.237
   71PEN    H34 2554   2.161   3.393   4.368
   71PEN    H35 2555   1.923   3.621   4.131
   71PEN    H36 2556   2.125   3.502   4.170
   72PEN     C1 2557   1.670   3.495   2.067
   72PEN     C2 2558   1.572   3.495   2.169
   72PEN     C3 2559   1.795   3.422   2.090
   72PEN     C4 2560   1.653   3.563   1.946
   72PEN     C5 2561   1.592   3.429   2.289
   72PEN     H6 2562   1.491   3.542   2.155
   72PEN     C7 2563   1.812   3.354   2.213
   72PEN     C8 2564   1.892   3.421   1.990
   72PEN     C9 2565   1.751   3.562   1.846
   72PEN    H10 2566   1.572   3.610   1.933
   72PEN    C11 2567   1.493   3.431   2.393
   72PEN    C12 2568   1.715   3.357   2.312
   72PEN    H13 2569   1.892   3.305   2.228
   72PEN    H14 2570   1.974   3.374   2.003
   72PEN    C15 2571   1.875   3.489   1.869
   72PEN    C16 2572   1.734   3.630   1.723
   72PEN    C17 2573   1.514   3.366   2.510
   72PEN    H18 2574   1.412   3.478   2.379
   72PEN    C19 2575   1.732   3.291   2.437
   72PEN    C20 2576   1.974   3.489   1.767
   72PEN    C21 2577   1.831   3.627   1.624
   72PEN    H22 2578   1.654   3.678   1.708
   72PEN    C23 2579   1.636   3.295   2.533
   72PEN    H24 2580   1.448   3.369   2.578
   72PEN    H25 2581   1.812   3.243   2.454
   72PEN    H26 2582   2.055   3.442   1.781
   72PEN    C27 2583   1.954   3.555   1.647
   72PEN    C28 2584   1.814   3.693   1.499
   72PEN    H29 2585   1.650   3.250   2.616
   72PEN    C30 2586   2.053   3.553   1.543
   72PEN    C31 2587   1.910   3.689   1.403
   72PEN    H32 2588   1.734   3.741   1.482
   72PEN    C33 2589   2.032   3.617   1.426
   72PEN    H34 2590   2.134   3.506   1.557
   72PEN    H35 2591   1.896   3.733   1.320
   72PEN    H36 2592   2.098   3.615   1.358
   73PEN     C1 2593   1.925   3.817   3.274
   73PEN     C2 2594   2.024   3.816   3.172
   73PEN     C3 2595   1.801   3.890   3.251
   73PEN     C4 2596   1.943   3.749   3.396
   73PEN     C5 2597   2.004   3.882   3.052
   73PEN     H6 2598   2.105   3.770   3.187
   73PEN     C7 2599   1.784   3.957   3.129
   73PEN     C8 2600   1.703   3.890   3.352
   73PEN     C9 2601   1.845   3.749   3.496
   73PEN    H10 2602   2.024   3.702   3.409
   73PEN    C11 2603   2.103   3.881   2.949
   73PEN    C12 2604   1.881   3.955   3.030
   73PEN    H13 2605   1.704   4.006   3.114
   73PEN    H14 2606   1.622   3.937   3.338
   73PEN    C15 2607   1.721   3.822   3.473
   73PEN    C16 2608   1.862   3.682   3.619
   73PEN    C17 2609   2.082   3.945   2.831
   73PEN    H18 2610   2.184   3.834   2.962
   73PEN    C19 2611   1.864   4.021   2.904
   73PEN    C20 2612   1.622   3.823   3.575
   73PEN    C21 2613   1.765   3.684   3.717
   73PEN    H22 2614   1.942   3.633   3.634
   73PEN    C23 2615   1.960   4.016   2.809
   73PEN    H24 2616   2.148   3.943   2.764
   73PEN    H25 2617   1.784   4.069   2.888
   73PEN    H26 2618   1.541   3.869   3.560
   73PEN    C27 2619   1.642   3.757   3.695
   73PEN    C28 2620   1.782   3.618   3.843
   73PEN    H29 2621   1.946   4.061   2.726
   73PEN    C30 2622   1.543   3.758   3.799
   73PEN    C31 2623   1.686   3.623   3.939
   73PEN    H32 2624   1.862   3.570   3.859
   73PEN    C33 2625   1.564   3.694   3.916
   73PEN    H34 2626   1.462   3.805   3.785
   73PEN    H35 2627   1.700   3.578   4.022
   73PEN    H36 2628   1.498   3.696   3.983
   74PEN     C1 2629   2.026   4.472   6.086
   74PEN     C2 2630   2.124   4.472   5.984
   74PEN     C3 2631   1.901   4.545   6.063
   74PEN     C4 2632   2.043   4.404   6.207
   74PEN     C5 2633   2.105   4.538   5.864
   74PEN     H6 2634   2.206   4.425   5.998
   74PEN     C7 2635   1.884   4.613   5.940
   74PEN     C8 2636   1.804   4.546   6.163
   74PEN     C9 2637   1.945   4.405   6.307
   74PEN    H10 2638   2.124   4.357   6.220
   74PEN    C11 2639   2.203   4.536   5.760
   74PEN    C12 2640   1.982   4.610   5.841
   74PEN    H13 2641   1.804   4.661   5.925
   74PEN    H14 2642   1.722   4.593   6.150
   74PEN    C15 2643   1.821   4.478   6.284
   74PEN    C16 2644   1.962   4.337   6.430
   74PEN    C17 2645   2.182   4.600   5.643
   74PEN    H18 2646   2.284   4.489   5.774
   74PEN    C19 2647   1.964   4.676   5.716
   74PEN    C20 2648   1.722   4.478   6.386
   74PEN    C21 2649   1.865   4.340   6.529
   74PEN    H22 2650   2.042   4.288   6.445
   74PEN    C23 2651   2.060   4.672   5.620
   74PEN    H24 2652   2.249   4.598   5.575
   74PEN    H25 2653   1.884   4.724   5.699
   74PEN    H26 2654   1.641   4.525   6.372
   74PEN    C27 2655   1.742   4.412   6.506
   74PEN    C28 2656   1.882   4.274   6.654
   74PEN    H29 2657   2.046   4.716   5.537
   74PEN    C30 2658   1.644   4.414   6.610
   74PEN    C31 2659   1.786   4.278   6.750
   74PEN    H32 2660   1.962   4.226   6.671
   74PEN    C33 2661   1.665   4.349   6.727
   74PEN    H34 2662   1.562   4.461   6.596
   74PEN    H35 2663   1.800   4.234   6.833
   74PEN    H36 2664   1.598   4.352   6.795
   75PEN     C1 2665   1.771   4.150   4.879
   75PEN     C2 2666   1.672   4.150   4.980
   75PEN     C3 2667   1.895   4.077   4.902
   75PEN     C4 2668   1.754   4.218   4.757
   75PEN     C5 2669   1.692   4.084   5.101
   75PEN     H6 2670   1.591   4.197   4.966
   75PEN     C7 2671   1.912   4.009   5.024
   75PEN     C8 2672   1.993   4.076   4.801
   75PEN     C9 2673   1.851   4.217   4.657
   75PEN    H10 2674   1.672   4.265   4.744
   75PEN    C11 2675   1.593   4.086   5.204
   75PEN    C12 2676   1.815   4.012   5.123
   75PEN    H13 2677   1.992   3.961   5.039
   75PEN    H14 2678   2.074   4.029   4.814
   75PEN    C15 2679   1.976   4.144   4.680
   75PEN    C16 2680   1.834   4.285   4.534
   75PEN    C17 2681   1.614   4.022   5.321
   75PEN    H18 2682   1.512   4.133   5.191
   75PEN    C19 2683   1.832   3.946   5.249
   75PEN    C20 2684   2.074   4.144   4.578
   75PEN    C21 2685   1.931   4.282   4.435
   75PEN    H22 2686   1.754   4.334   4.519
   75PEN    C23 2687   1.736   3.950   5.344
   75PEN    H24 2688   1.548   4.024   5.389
   75PEN    H25 2689   1.912   3.898   5.265
   75PEN    H26 2690   2.155   4.097   4.593
   75PEN    C27 2691   2.054   4.210   4.458
   75PEN    C28 2692   1.914   4.348   4.310
   75PEN    H29 2693   1.750   3.906   5.427
   75PEN    C30 2694   2.153   4.208   4.354
   75PEN    C31 2695   2.010   4.344   4.214
   75PEN    H32 2696   1.834   4.396   4.294
   75PEN    C33 2697   2.132   4.273   4.237
   75PEN    H34 2698   2.234   4.161   4.368
   75PEN    H35 2699   1.996   4.389   4.131
   75PEN    H36 2700   2.198   4.270   4.170
   76PEN     C1 2701   1.828   1.402   4.860
   76PEN     C2 2702   1.728   1.345   4.943
   76PEN     C3 2703   1.951   1.451   4.920
   76PEN     C4 2704   1.810   1.412   4.721
   76PEN     C5 2705   1.746   1.335   5.081
   76PEN     H6 2706   1.648   1.313   4.904
   76PEN     C7 2707   1.966   1.439   5.060
   76PEN     C8 2708   2.049   1.507   4.837
   76PEN     C9 2709   1.908   1.468   4.638
   76PEN    H10 2710   1.728   1.381   4.684
   76PEN    C11 2711   1.647   1.276   5.167
   76PEN    C12 2712   1.869   1.383   5.141
   76PEN    H13 2713   2.046   1.471   5.100
   76PEN    H14 2714   2.130   1.539   4.875
   76PEN    C15 2715   2.031   1.517   4.699
   76PEN    C16 2716   1.892   1.480   4.499
   76PEN    C17 2717   1.667   1.267   5.301
   76PEN    H18 2718   1.566   1.244   5.129
   76PEN    C19 2719   1.885   1.370   5.283
   76PEN    C20 2720   2.130   1.574   4.615
   76PEN    C21 2721   1.990   1.537   4.418
   76PEN    H22 2722   1.812   1.448   4.459
   76PEN    C23 2723   1.787   1.315   5.359
   76PEN    H24 2724   1.600   1.228   5.356
   76PEN    H25 2725   1.965   1.401   5.324
   76PEN    H26 2726   2.211   1.606   4.654
   76PEN    C27 2727   2.112   1.584   4.478
   76PEN    C28 2728   1.973   1.549   4.276
   76PEN    H29 2729   1.799   1.308   5.453
   76PEN    C30 2730   2.212   1.643   4.392
   76PEN    C31 2731   2.071   1.604   4.200
   76PEN    H32 2732   1.893   1.519   4.235
   76PEN    C33 2733   2.192   1.653   4.258
   76PEN    H34 2734   2.293   1.675   4.429
   76PEN    H35 2735   2.059   1.611   4.106
   76PEN    H36 2736   2.259   1.692   4.203
   77PEN     C1 2737   1.931   0.862   1.887
   77PEN     C2 2738   2.030   0.919   1.804
   77PEN     C3 2739   1.808   0.813   1.827
   77PEN     C4 2740   1.949   0.851   2.026
   77PEN     C5 2741   2.012   0.929   1.667
   77PEN     H6 2742   2.110   0.951   1.843
   77PEN     C7 2743   1.792   0.825   1.688
   77PEN     C8 2744   1.709   0.757   1.910
   77PEN     C9 2745   1.850   0.796   2.109
   77PEN    H10 2746   2.030   0.883   2.063
   77PEN    C11 2747   2.112   0.988   1.580
   77PEN    C12 2748   1.890   0.881   1.607
   77PEN    H13 2749   1.712   0.793   1.648
   77PEN    H14 2750   1.628   0.725   1.873
   77PEN    C15 2751   1.727   0.747   2.049
   77PEN    C16 2752   1.866   0.784   2.248
   77PEN    C17 2753   2.092   0.997   1.447
   77PEN    H18 2754   2.193   1.020   1.618
   77PEN    C19 2755   1.873   0.894   1.464
   77PEN    C20 2756   1.628   0.690   2.132
   77PEN    C21 2757   1.769   0.727   2.329
   77PEN    H22 2758   1.946   0.816   2.288
   77PEN    C23 2759   1.971   0.949   1.388
   77PEN    H24 2760   2.159   1.036   1.392
   77PEN    H25 2761   1.793   0.863   1.423
   77PEN    H26 2762   1.548   0.658   2.093
   77PEN    C27 2763   1.646   0.680   2.269
   77PEN    C28 2764   1.785   0.715   2.471
   77PEN    H29 2765   1.959   0.955   1.294
   77PEN    C30 2766   1.546   0.621   2.356
   77PEN    C31 2767   1.687   0.660   2.548
   77PEN    H32 2768   1.865   0.745   2.513
   77PEN    C33 2769   1.566   0.611   2.489
   77PEN    H34 2770   1.465   0.589   2.318
   77PEN    H35 2771   1.699   0.653   2.642
   77PEN    H36 2772   1.499   0.572   2.544
   78PEN     C1 2773   1.981   1.189   3.293
   78PEN     C2 2774   2.080   1.246   3.210
   78PEN     C3 2775   1.858   1.141   3.233
   78PEN     C4 2776   1.999   1.179   3.432
   78PEN     C5 2777   2.062   1.257   3.072
   78PEN     H6 2778   2.160   1.279   3.249
   78PEN     C7 2779   1.842   1.152   3.093
   78PEN     C8 2780   1.760   1.085   3.316
   78PEN     C9 2781   1.901   1.123   3.515
   78PEN    H10 2782   2.080   1.211   3.469
   78PEN    C11 2783   2.162   1.315   2.986
   78PEN    C12 2784   1.940   1.209   3.012
   78PEN    H13 2785   1.762   1.121   3.053
   78PEN    H14 2786   1.678   1.053   3.278
   78PEN    C15 2787   1.778   1.075   3.454
   78PEN    C16 2788   1.916   1.111   3.654
   78PEN    C17 2789   2.142   1.325   2.852
   78PEN    H18 2790   2.243   1.348   3.023
   78PEN    C19 2791   1.923   1.222   2.870
   78PEN    C20 2792   1.678   1.017   3.538
   78PEN    C21 2793   1.819   1.055   3.735
   78PEN    H22 2794   1.996   1.143   3.694
   78PEN    C23 2795   2.021   1.277   2.794
   78PEN    H24 2796   2.209   1.364   2.797
   78PEN    H25 2797   1.843   1.191   2.829
   78PEN    H26 2798   1.598   0.985   3.499
   78PEN    C27 2799   1.696   1.007   3.675
   78PEN    C28 2800   1.835   1.042   3.877
   78PEN    H29 2801   2.009   1.283   2.700
   78PEN    C30 2802   1.597   0.949   3.761
   78PEN    C31 2803   1.737   0.987   3.953
   78PEN    H32 2804   1.915   1.073   3.918
   78PEN    C33 2805   1.616   0.939   3.895
   78PEN    H34 2806   1.516   0.916   3.724
   78PEN    H35 2807   1.749   0.981   4.047
   78PEN    H36 2808   1.550   0.900   3.950
   79PEN     C1 2809   1.878   1.730   6.266
   79PEN     C2 2810   1.779   1.673   6.349
   79PEN     C3 2811   2.001   1.779   6.326
   79PEN     C4 2812   1.860   1.740   6.127
   79PEN     C5 2813   1.796   1.663   6.486
   79PEN     H6 2814   1.698   1.641   6.310
   79PEN     C7 2815   2.016   1.767   6.465
   79PEN     C8 2816   2.099   1.835   6.243
   79PEN     C9 2817   1.958   1.796   6.044
   79PEN    H10 2818   1.778   1.708   6.090
   79PEN    C11 2819   1.697   1.604   6.573
   79PEN    C12 2820   1.919   1.710   6.546
   79PEN    H13 2821   2.097   1.799   6.505
   79PEN    H14 2822   2.180   1.866   6.280
   79PEN    C15 2823   2.081   1.845   6.104
   79PEN    C16 2824   1.942   1.808   5.905
   79PEN    C17 2825   1.717   1.594   6.706
   79PEN    H18 2826   1.616   1.572   6.535
   79PEN    C19 2827   1.935   1.698   6.689
   79PEN    C20 2828   2.180   1.902   6.021
   79PEN    C21 2829   2.040   1.864   5.824
   79PEN    H22 2830   1.862   1.776   5.865
   79PEN    C23 2831   1.837   1.643   6.765
   79PEN    H24 2832   1.650   1.555   6.761
   79PEN    H25 2833   2.015   1.728   6.730
   79PEN    H26 2834   2.261   1.934   6.060
   79PEN    C27 2835   2.162   1.912   5.884
   79PEN    C28 2836   2.024   1.877   5.681
   79PEN    H29 2837   1.849   1.636   6.859
   79PEN    C30 2838   2.262   1.971   5.797
   79PEN    C31 2839   2.121   1.932   5.605
   79PEN    H32 2840   1.944   1.846   5.640
   79PEN    C33 2841   2.242   1.980   5.664
   79PEN    H34 2842   2.343   2.003   5.835
   79PEN    H35 2843   2.109   1.939   5.511
   79PEN    H36 2844   2.309   2.019   5.609
   80PEN     C1 2845   1.951   2.498   6.266
   80PEN     C2 2846   1.852   2.441   6.349
   80PEN     C3 2847   2.074   2.547   6.326
   80PEN     C4 2848   1.933   2.508   6.127
   80PEN     C5 2849   1.870   2.431   6.486
   80PEN     H6 2850   1.772   2.409   6.310
   80PEN     C7 2851   2.090   2.535   6.465
   80PEN     C8 2852   2.173   2.602   6.243
   80PEN     C9 2853   2.032   2.564   6.044
   80PEN    H10 2854   1.852   2.476   6.090
   80PEN    C11 2855   1.770   2.372   6.573
   80PEN    C12 2856   1.993   2.478   6.546
   80PEN    H13 2857   2.170   2.566   6.505
   80PEN    H14 2858   2.254   2.634   6.280
   80PEN    C15 2859   2.155   2.613   6.104
   80PEN    C16 2860   2.016   2.576   5.905
   80PEN    C17 2861   1.790   2.362   6.706
   80PEN    H18 2862   1.689   2.340   6.535
   80PEN    C19 2863   2.009   2.466   6.689
   80PEN    C20 2864   2.254   2.670   6.021
   80PEN    C21 2865   2.113   2.632   5.824
   80PEN    H22 2866   1.936   2.544   5.865
   80PEN    C23 2867   1.911   2.411   6.765
   80PEN    H24 2868   1.723   2.323   6.761
   80PEN    H25 2869   2.089   2.496   6.730
   80PEN    H26 2870   2.334   2.702   6.060
   80PEN    C27 2871   2.236   2.680   5.884
   80PEN    C28 2872   2.097   2.645   5.681
   80PEN    H29 2873   1.923   2.404   6.859
   80PEN    C30 2874   2.336   2.738   5.797
   80PEN    C31 2875   2.195   2.700   5.605
   80PEN    H32 2876   2.017   2.614   5.640
   80PEN    C33 2877   2.316   2.748   5.664
   80PEN    H34 2878   2.417   2.771   5.835
   80PEN    H35 2879   2.183   2.706   5.511
   80PEN    H36 2880   2.383   2.787   5.609
   81PEN     C1 2881   2.004   1.630   1.887
   81PEN     C2 2882   2.103   1.687   1.804
   81PEN     C3 2883   1.881   1.581   1.827
   81PEN     C4 2884   2.022   1.619   2.026
   81PEN     C5 2885   2.086   1.697   1.667
   81PEN     H6 2886   2.184   1.719   1.843
   81PEN     C7 2887   1.866   1.593   1.688
   81PEN     C8 2888   1.783   1.525   1.910
   81PEN     C9 2889   1.924   1.564   2.109
   81PEN    H10 2890   2.104   1.651   2.063
   81PEN    C11 2891   2.185   1.755   1.580
   81PEN    C12 2892   1.963   1.649   1.607
   81PEN    H13 2893   1.785   1.561   1.648
   81PEN    H14 2894   1.702   1.493   1.873
   81PEN    C15 2895   1.801   1.515   2.049
   81PEN    C16 2896   1.940   1.552   2.248
   81PEN    C17 2897   2.165   1.765   1.447
   81PEN    H18 2898   2.266   1.788   1.618
   81PEN    C19 2899   1.947   1.662   1.464
   81PEN    C20 2900   1.702   1.458   2.132
   81PEN    C21 2901   1.842   1.495   2.329
   81PEN    H22 2902   2.020   1.583   2.288
   81PEN    C23 2903   2.045   1.717   1.388
   81PEN    H24 2904   2.232   1.804   1.392
   81PEN    H25 2905   1.867   1.631   1.423
   81PEN    H26 2906   1.621   1.426   2.093
   81PEN    C27 2907   1.720   1.448   2.269
   81PEN    C28 2908   1.859   1.483   2.471
   81PEN    H29 2909   2.033   1.723   1.294
   81PEN    C30 2910   1.620   1.389   2.356
   81PEN    C31 2911   1.761   1.427   2.548
   81PEN    H32 2912   1.938   1.513   2.513
   81PEN    C33 2913   1.640   1.379   2.489
   81PEN    H34 2914   1.539   1.357   2.318
   81PEN    H35 2915   1.773   1.421   2.642
   81PEN    H36 2916   1.573   1.340   2.544
   82PEN     C1 2917   2.054   1.957   3.293
   82PEN     C2 2918   2.154   2.014   3.210
   82PEN     C3 2919   1.931   1.908   3.233
   82PEN     C4 2920   2.072   1.947   3.432
   82PEN     C5 2921   2.136   2.024   3.072
   82PEN     H6 2922   2.234   2.046   3.249
   82PEN     C7 2923   1.916   1.920   3.093
   82PEN     C8 2924   1.833   1.853   3.316
   82PEN     C9 2925   1.974   1.891   3.515
   82PEN    H10 2926   2.154   1.979   3.469
   82PEN    C11 2927   2.235   2.083   2.986
   82PEN    C12 2928   2.013   1.977   3.012
   82PEN    H13 2929   1.836   1.889   3.053
   82PEN    H14 2930   1.752   1.821   3.278
   82PEN    C15 2931   1.851   1.842   3.454
   82PEN    C16 2932   1.990   1.879   3.654
   82PEN    C17 2933   2.216   2.093   2.852
   82PEN    H18 2934   2.316   2.115   3.023
   82PEN    C19 2935   1.997   1.989   2.870
   82PEN    C20 2936   1.752   1.785   3.538
   82PEN    C21 2937   1.892   1.823   3.735
   82PEN    H22 2938   2.070   1.911   3.694
   82PEN    C23 2939   2.095   2.045   2.794
   82PEN    H24 2940   2.282   2.132   2.797
   82PEN    H25 2941   1.917   1.959   2.829
   82PEN    H26 2942   1.671   1.753   3.499
   82PEN    C27 2943   1.770   1.775   3.675
   82PEN    C28 2944   1.909   1.810   3.877
   82PEN    H29 2945   2.083   2.051   2.700
   82PEN    C30 2946   1.670   1.717   3.761
   82PEN    C31 2947   1.811   1.755   3.953
   82PEN    H32 2948   1.989   1.841   3.918
   82PEN    C33 2949   1.690   1.707   3.895
   82PEN    H34 2950   1.589   1.684   3.724
   82PEN    H35 2951   1.823   1.749   4.047
   82PEN    H36 2952   1.623   1.668   3.950
   83PEN     C1 2953   2.078   2.397   1.887
   83PEN     C2 2954   2.177   2.455   1.804
   83PEN     C3 2955   1.955   2.349   1.827
   83PEN     C4 2956   2.096   2.387   2.026
   83PEN     C5 2957   2.159   2.465   1.667
   83PEN     H6 2958   2.258   2.487   1.843
   83PEN     C7 2959   1.939   2.361   1.688
   83PEN     C8 2960   1.857   2.293   1.910
   83PEN     C9 2961   1.998   2.331   2.109
   83PEN    H10 2962   2.177   2.419   2.063
   83PEN    C11 2963   2.259   2.523   1.580
   83PEN    C12 2964   2.037   2.417   1.607
   83PEN    H13 2965   1.859   2.329   1.648
   83PEN    H14 2966   1.775   2.261   1.873
   83PEN    C15 2967   1.875   2.283   2.049
   83PEN    C16 2968   2.013   2.320   2.248
   83PEN    C17 2969   2.239   2.533   1.447
   83PEN    H18 2970   2.340   2.556   1.618
   83PEN    C19 2971   2.020   2.430   1.464
   83PEN    C20 2972   1.775   2.225   2.132
   83PEN    C21 2973   1.916   2.263   2.329
   83PEN    H22 2974   2.093   2.351   2.288
   83PEN    C23 2975   2.118   2.485   1.388
   83PEN    H24 2976   2.306   2.572   1.392
   83PEN    H25 2977   1.940   2.399   1.423
   83PEN    H26 2978   1.695   2.193   2.093
   83PEN    C27 2979   1.793   2.215   2.269
   83PEN    C28 2980   1.932   2.250   2.471
   83PEN    H29 2981   2.106   2.491   1.294
   83PEN    C30 2982   1.694   2.157   2.356
   83PEN    C31 2983   1.834   2.195   2.548
   83PEN    H32 2984   2.012   2.281   2.513
   83PEN    C33 2985   1.713   2.147   2.489
   83PEN    H34 2986   1.613   2.124   2.318
   83PEN    H35 2987   1.846   2.189   2.642
   83PEN    H36 2988   1.647   2.108   2.544
   84PEN     C1 2989   1.925   2.610   3.454
   84PEN     C2 2990   1.826   2.553   3.538
   84PEN     C3 2991   2.048   2.659   3.515
   84PEN     C4 2992   1.907   2.621   3.316
   84PEN     C5 2993   1.843   2.543   3.675
   84PEN     H6 2994   1.745   2.521   3.499
   84PEN     C7 2995   2.063   2.647   3.654
   84PEN     C8 2996   2.146   2.715   3.432
   84PEN     C9 2997   2.005   2.676   3.233
   84PEN    H10 2998   1.825   2.589   3.278
   84PEN    C11 2999   1.744   2.484   3.761
   84PEN    C12 3000   1.966   2.591   3.735
   84PEN    H13 3001   2.144   2.679   3.694
   84PEN    H14 3002   2.227   2.747   3.469
   84PEN    C15 3003   2.128   2.725   3.293
   84PEN    C16 3004   1.989   2.688   3.093
   84PEN    C17 3005   1.764   2.475   3.895
   84PEN    H18 3006   1.663   2.452   3.724
   84PEN    C19 3007   1.982   2.578   3.877
   84PEN    C20 3008   2.227   2.782   3.210
   84PEN    C21 3009   2.087   2.745   3.012
   84PEN    H22 3010   1.909   2.656   3.053
   84PEN    C23 3011   1.884   2.523   3.953
   84PEN    H24 3012   1.697   2.436   3.950
   84PEN    H25 3013   2.062   2.609   3.918
   84PEN    H26 3014   2.308   2.814   3.249
   84PEN    C27 3015   2.209   2.792   3.072
   84PEN    C28 3016   2.070   2.757   2.870
   84PEN    H29 3017   1.896   2.517   4.047
   84PEN    C30 3018   2.309   2.851   2.986
   84PEN    C31 3019   2.168   2.812   2.794
   84PEN    H32 3020   1.990   2.727   2.829
   84PEN    C33 3021   2.289   2.861   2.852
   84PEN    H34 3022   2.390   2.883   3.023
   84PEN    H35 3023   2.156   2.819   2.700
   84PEN    H36 3024   2.356   2.900   2.797
   85PEN     C1 3025   2.025   3.266   6.266
   85PEN     C2 3026   1.926   3.209   6.349
   85PEN     C3 3027   2.148   3.314   6.326
   85PEN     C4 3028   2.007   3.276   6.127
   85PEN     C5 3029   1.944   3.198   6.486
   85PEN     H6 3030   1.845   3.176   6.310
   85PEN     C7 3031   2.164   3.303   6.465
   85PEN     C8 3032   2.246   3.370   6.243
   85PEN     C9 3033   2.105   3.332   6.044
   85PEN    H10 3034   1.926   3.244   6.090
   85PEN    C11 3035   1.844   3.140   6.573
   85PEN    C12 3036   2.066   3.246   6.546
   85PEN    H13 3037   2.244   3.334   6.505
   85PEN    H14 3038   2.328   3.402   6.280
   85PEN    C15 3039   2.228   3.380   6.104
   85PEN    C16 3040   2.090   3.344   5.905
   85PEN    C17 3041   1.864   3.130   6.706
   85PEN    H18 3042   1.763   3.107   6.535
   85PEN    C19 3043   2.082   3.234   6.689
   85PEN    C20 3044   2.327   3.438   6.021
   85PEN    C21 3045   2.187   3.400   5.824
   85PEN    H22 3046   2.009   3.312   5.865
   85PEN    C23 3047   1.985   3.178   6.765
   85PEN    H24 3048   1.797   3.091   6.761
   85PEN    H25 3049   2.162   3.264   6.730
   85PEN    H26 3050   2.408   3.470   6.060
   85PEN    C27 3051   2.310   3.448   5.884
   85PEN    C28 3052   2.171   3.413   5.681
   85PEN    H29 3053   1.997   3.172   6.859
   85PEN    C30 3054   2.409   3.506   5.797
   85PEN    C31 3055   2.269   3.468   5.605
   85PEN    H32 3056   2.091   3.382   5.640
   85PEN    C33 3057   2.389   3.516   5.664
   85PEN    H34 3058   2.490   3.539   5.835
   85PEN    H35 3059   2.257   3.474   5.511
   85PEN    H36 3060   2.456   3.555   5.609
   86PEN     C1 3061   2.151   3.165   1.887
   86PEN     C2 3062   2.251   3.222   1.804
   86PEN     C3 3063   2.028   3.116   1.827
   86PEN     C4 3064   2.169   3.155   2.026
   86PEN     C5 3065   2.233   3.232   1.667
   86PEN     H6 3066   2.331   3.255   1.843
   86PEN     C7 3067   2.013   3.128   1.688
   86PEN     C8 3068   1.930   3.061   1.910
   86PEN     C9 3069   2.071   3.099   2.109
   86PEN    H10 3070   2.251   3.187   2.063
   86PEN    C11 3071   2.332   3.291   1.580
   86PEN    C12 3072   2.110   3.185   1.607
   86PEN    H13 3073   1.933   3.097   1.648
   86PEN    H14 3074   1.849   3.029   1.873
   86PEN    C15 3075   1.948   3.051   2.049
   86PEN    C16 3076   2.087   3.087   2.248
   86PEN    C17 3077   2.313   3.301   1.447
   86PEN    H18 3078   2.413   3.323   1.618
   86PEN    C19 3079   2.094   3.197   1.464
   86PEN    C20 3080   1.849   2.993   2.132
   86PEN    C21 3081   1.989   3.031   2.329
   86PEN    H22 3082   2.167   3.119   2.288
   86PEN    C23 3083   2.192   3.253   1.388
   86PEN    H24 3084   2.379   3.340   1.392
   86PEN    H25 3085   2.014   3.167   1.423
   86PEN    H26 3086   1.768   2.961   2.093
   86PEN    C27 3087   1.867   2.983   2.269
   86PEN    C28 3088   2.006   3.018   2.471
   86PEN    H29 3089   2.180   3.259   1.294
   86PEN    C30 3090   1.767   2.925   2.356
   86PEN    C31 3091   1.908   2.963   2.548
   86PEN    H32 3092   2.086   3.049   2.513
   86PEN    C33 3093   1.787   2.915   2.489
   86PEN    H34 3094   1.686   2.892   2.318
   86PEN    H35 3095   1.920   2.957   2.642
   86PEN    H36 3096   1.720   2.876   2.544
   87PEN     C1 3097   2.202   3.493   3.293
   87PEN     C2 3098   2.301   3.550   3.210
   87PEN     C3 3099   2.079   3.444   3.233
   87PEN     C4 3100   2.220   3.483   3.432
   87PEN     C5 3101   2.283   3.560   3.072
   87PEN     H6 3102   2.381   3.582   3.249
   87PEN     C7 3103   2.063   3.456   3.093
   87PEN     C8 3104   1.980   3.388   3.316
   87PEN     C9 3105   2.121   3.427   3.515
   87PEN    H10 3106   2.301   3.514   3.469
   87PEN    C11 3107   2.383   3.619   2.986
   87PEN    C12 3108   2.160   3.513   3.012
   87PEN    H13 3109   1.983   3.424   3.053
   87PEN    H14 3110   1.899   3.357   3.278
   87PEN    C15 3111   1.998   3.378   3.454
   87PEN    C16 3112   2.137   3.415   3.654
   87PEN    C17 3113   2.363   3.628   2.852
   87PEN    H18 3114   2.464   3.651   3.023
   87PEN    C19 3115   2.144   3.525   2.870
   87PEN    C20 3116   1.899   3.321   3.538
   87PEN    C21 3117   2.039   3.359   3.735
   87PEN    H22 3118   2.217   3.447   3.694
   87PEN    C23 3119   2.242   3.580   2.794
   87PEN    H24 3120   2.430   3.668   2.797
   87PEN    H25 3121   2.064   3.494   2.829
   87PEN    H26 3122   1.819   3.289   3.499
   87PEN    C27 3123   1.917   3.311   3.675
   87PEN    C28 3124   2.056   3.346   3.877
   87PEN    H29 3125   2.230   3.587   2.700
   87PEN    C30 3126   1.817   3.252   3.761
   87PEN    C31 3127   1.958   3.291   3.953
   87PEN    H32 3128   2.136   3.377   3.918
   87PEN    C33 3129   1.837   3.243   3.895
   87PEN    H34 3130   1.736   3.220   3.724
   87PEN    H35 3131   1.970   3.284   4.047
   87PEN    H36 3132   1.770   3.203   3.950
   88PEN     C1 3133   2.252   3.821   4.699
   88PEN     C2 3134   2.351   3.878   4.615
   88PEN     C3 3135   2.129   3.772   4.638
   88PEN     C4 3136   2.270   3.810   4.837
   88PEN     C5 3137   2.333   3.888   4.478
   88PEN     H6 3138   2.431   3.910   4.654
   88PEN     C7 3139   2.113   3.784   4.499
   88PEN     C8 3140   2.031   3.716   4.721
   88PEN     C9 3141   2.172   3.755   4.920
   88PEN    H10 3142   2.351   3.842   4.875
   88PEN    C11 3143   2.433   3.946   4.392
   88PEN    C12 3144   2.211   3.840   4.418
   88PEN    H13 3145   2.033   3.752   4.459
   88PEN    H14 3146   1.949   3.684   4.684
   88PEN    C15 3147   2.048   3.706   4.860
   88PEN    C16 3148   2.187   3.743   5.060
   88PEN    C17 3149   2.413   3.956   4.258
   88PEN    H18 3150   2.514   3.979   4.429
   88PEN    C19 3151   2.194   3.853   4.276
   88PEN    C20 3152   1.949   3.649   4.943
   88PEN    C21 3153   2.090   3.686   5.141
   88PEN    H22 3154   2.267   3.774   5.100
   88PEN    C23 3155   2.292   3.908   4.200
   88PEN    H24 3156   2.480   3.995   4.203
   88PEN    H25 3157   2.114   3.822   4.235
   88PEN    H26 3158   1.869   3.617   4.904
   88PEN    C27 3159   1.967   3.639   5.081
   88PEN    C28 3160   2.106   3.674   5.283
   88PEN    H29 3161   2.280   3.914   4.106
   88PEN    C30 3162   1.868   3.580   5.167
   88PEN    C31 3163   2.008   3.619   5.359
   88PEN    H32 3164   2.186   3.704   5.324
   88PEN    C33 3165   1.887   3.570   5.301
   88PEN    H34 3166   1.787   3.548   5.129
   88PEN    H35 3167   2.020   3.612   5.453
   88PEN    H36 3168   1.820   3.531   5.356
   89PEN     C1 3169   2.099   4.034   6.266
   89PEN     C2 3170   1.999   3.976   6.349
   89PEN     C3 3171   2.222   4.082   6.326
   89PEN     C4 3172   2.081   4.044   6.127
   89PEN     C5 3173   2.017   3.966   6.486
   89PEN     H6 3174   1.919   3.944   6.310
   89PEN     C7 3175   2.237   4.070   6.465
   89PEN     C8 3176   2.320   4.138   6.243
   89PEN     C9 3177   2.179   4.099   6.044
   89PEN    H10 3178   1.999   4.012   6.090
   89PEN    C11 3179   1.918   3.908   6.573
   89PEN    C12 3180   2.140   4.014   6.546
   89PEN    H13 3181   2.317   4.102   6.505
   89PEN    H14 3182   2.401   4.170   6.280
   89PEN    C15 3183   2.302   4.148   6.104
   89PEN    C16 3184   2.163   4.111   5.905
   89PEN    C17 3185   1.937   3.898   6.706
   89PEN    H18 3186   1.837   3.875   6.535
   89PEN    C19 3187   2.156   4.001   6.689
   89PEN    C20 3188   2.401   4.205   6.021
   89PEN    C21 3189   2.261   4.168   5.824
   89PEN    H22 3190   2.083   4.080   5.865
   89PEN    C23 3191   2.058   3.946   6.765
   89PEN    H24 3192   1.871   3.859   6.761
   89PEN    H25 3193   2.236   4.032   6.730
   89PEN    H26 3194   2.482   4.238   6.060
   89PEN    C27 3195   2.383   4.216   5.884
   89PEN    C28 3196   2.244   4.180   5.681
   89PEN    H29 3197   2.070   3.940   6.859
   89PEN    C30 3198   2.483   4.274   5.797
   89PEN    C31 3199   2.342   4.236   5.605
   89PEN    H32 3200   2.164   4.150   5.640
   89PEN    C33 3201   2.463   4.284   5.664
   89PEN    H34 3202   2.564   4.307   5.835
   89PEN    H35 3203   2.330   4.242   5.511
   89PEN    H36 3204   2.530   4.323   5.609
   90PEN     C1 3205   2.022   3.818   2.049
   90PEN     C2 3206   1.923   3.761   2.132
   90PEN     C3 3207   2.145   3.867   2.109
   90PEN     C4 3208   2.004   3.829   1.910
   90PEN     C5 3209   1.941   3.751   2.269
   90PEN     H6 3210   1.842   3.729   2.093
   90PEN     C7 3211   2.161   3.855   2.248
   90PEN     C8 3212   2.243   3.923   2.026
   90PEN     C9 3213   2.102   3.884   1.827
   90PEN    H10 3214   1.923   3.797   1.873
   90PEN    C11 3215   1.841   3.693   2.356
   90PEN    C12 3216   2.063   3.799   2.329
   90PEN    H13 3217   2.241   3.887   2.288
   90PEN    H14 3218   2.324   3.955   2.063
   90PEN    C15 3219   2.225   3.933   1.887
   90PEN    C16 3220   2.086   3.896   1.688
   90PEN    C17 3221   1.861   3.683   2.489
   90PEN    H18 3222   1.760   3.660   2.318
   90PEN    C19 3223   2.079   3.786   2.471
   90PEN    C20 3224   2.324   3.990   1.804
   90PEN    C21 3225   2.184   3.953   1.607
   90PEN    H22 3226   2.006   3.864   1.648
   90PEN    C23 3227   1.981   3.731   2.548
   90PEN    H24 3228   1.794   3.644   2.544
   90PEN    H25 3229   2.159   3.817   2.513
   90PEN    H26 3230   2.405   4.022   1.843
   90PEN    C27 3231   2.306   4.000   1.667
   90PEN    C28 3232   2.168   3.965   1.464
   90PEN    H29 3233   1.994   3.725   2.642
   90PEN    C30 3234   2.406   4.059   1.580
   90PEN    C31 3235   2.265   4.020   1.388
   90PEN    H32 3236   2.088   3.935   1.423
   90PEN    C33 3237   2.386   4.069   1.447
   90PEN    H34 3238   2.487   4.091   1.618
   90PEN    H35 3239   2.253   4.027   1.294
   90PEN    H36 3240   2.453   4.108   1.392
   91PEN     C1 3241   2.325   4.588   4.699
   91PEN     C2 3242   2.425   4.646   4.615
   91PEN     C3 3243   2.202   4.540   4.638
   91PEN     C4 3244   2.343   4.578   4.837
   91PEN     C5 3245   2.407   4.656   4.478
   91PEN     H6 3246   2.505   4.678   4.654
   91PEN     C7 3247   2.187   4.552   4.499
   91PEN     C8 3248   2.104   4.484   4.721
   91PEN     C9 3249   2.245   4.523   4.920
   91PEN    H10 3250   2.425   4.610   4.875
   91PEN    C11 3251   2.506   4.714   4.392
   91PEN    C12 3252   2.284   4.608   4.418
   91PEN    H13 3253   2.106   4.520   4.459
   91PEN    H14 3254   2.023   4.452   4.684
   91PEN    C15 3255   2.122   4.474   4.860
   91PEN    C16 3256   2.261   4.511   5.060
   91PEN    C17 3257   2.486   4.724   4.258
   91PEN    H18 3258   2.587   4.747   4.429
   91PEN    C19 3259   2.268   4.621   4.276
   91PEN    C20 3260   2.023   4.417   4.943
   91PEN    C21 3261   2.163   4.454   5.141
   91PEN    H22 3262   2.341   4.542   5.100
   91PEN    C23 3263   2.366   4.676   4.200
   91PEN    H24 3264   2.553   4.763   4.203
   91PEN    H25 3265   2.188   4.590   4.235
   91PEN    H26 3266   1.942   4.384   4.904
   91PEN    C27 3267   2.041   4.406   5.081
   91PEN    C28 3268   2.180   4.442   5.283
   91PEN    H29 3269   2.354   4.682   4.106
   91PEN    C30 3270   1.941   4.348   5.167
   91PEN    C31 3271   2.082   4.386   5.359
   91PEN    H32 3272   2.260   4.472   5.324
   91PEN    C33 3273   1.961   4.338   5.301
   91PEN    H34 3274   1.860   4.315   5.129
   91PEN    H35 3275   2.094   4.380   5.453
   91PEN    H36 3276   1.894   4.299   5.356
   92PEN     C1 3277   2.375   4.916   6.104
   92PEN     C2 3278   2.475   4.973   6.021
   92PEN     C3 3279   2.252   4.867   6.044
   92PEN     C4 3280   2.393   4.906   6.243
   92PEN     C5 3281   2.457   4.983   5.884
   92PEN     H6 3282   2.555   5.005   6.060
   92PEN     C7 3283   2.237   4.879   5.905
   92PEN     C8 3284   2.154   4.812   6.127
   92PEN     C9 3285   2.295   4.850   6.326
   92PEN    H10 3286   2.475   4.938   6.280
   92PEN    C11 3287   2.556   5.042   5.797
   92PEN    C12 3288   2.334   4.936   5.824
   92PEN    H13 3289   2.157   4.848   5.865
   92PEN    H14 3290   2.073   4.780   6.090
   92PEN    C15 3291   2.172   4.801   6.266
   92PEN    C16 3292   2.311   4.838   6.465
   92PEN    C17 3293   2.537   5.052   5.664
   92PEN    H18 3294   2.637   5.074   5.835
   92PEN    C19 3295   2.318   4.948   5.681
   92PEN    C20 3296   2.073   4.744   6.349
   92PEN    C21 3297   2.213   4.782   6.546
   92PEN    H22 3298   2.391   4.870   6.505
   92PEN    C23 3299   2.416   5.003   5.605
   92PEN    H24 3300   2.603   5.091   5.609
   92PEN    H25 3301   2.238   4.918   5.640
   92PEN    H26 3302   1.992   4.712   6.310
   92PEN    C27 3303   2.091   4.734   6.486
   92PEN    C28 3304   2.230   4.769   6.689
   92PEN    H29 3305   2.404   5.010   5.511
   92PEN    C30 3306   1.991   4.676   6.573
   92PEN    C31 3307   2.132   4.714   6.765
   92PEN    H32 3308   2.310   4.800   6.730
   92PEN    C33 3309   2.011   4.666   6.706
   92PEN    H34 3310   1.910   4.643   6.535
   92PEN    H35 3311   2.144   4.708   6.859
   92PEN    H36 3312   1.944   4.627   6.761
   93PEN     C1 3313   1.677   0.419   0.643
   93PEN     C2 3314   1.578   0.362   0.726
   93PEN     C3 3315   1.800   0.468   0.703
   93PEN     C4 3316   1.659   0.429   0.504
   93PEN     C5 3317   1.596   0.352   0.864
   93PEN     H6 3318   1.498   0.330   0.687
   93PEN     C7 3319   1.816   0.456   0.843
   93PEN     C8 3320   1.898   0.524   0.620
   93PEN     C9 3321   1.757   0.485   0.421
   93PEN    H10 3322   1.578   0.398   0.467
   93PEN    C11 3323   1.496   0.293   0.950
   93PEN    C12 3324   1.718   0.400   0.924
   93PEN    H13 3325   1.896   0.488   0.883
   93PEN    H14 3326   1.980   0.555   0.658
   93PEN    C15 3327   1.881   0.534   0.482
   93PEN    C16 3328   1.742   0.497   0.282
   93PEN    C17 3329   1.516   0.284   1.083
   93PEN    H18 3330   1.415   0.261   0.912
   93PEN    C19 3331   1.735   0.387   1.066
   93PEN    C20 3332   1.980   0.591   0.398
   93PEN    C21 3333   1.839   0.554   0.201
   93PEN    H22 3334   1.662   0.465   0.242
   93PEN    C23 3335   1.637   0.332   1.142
   93PEN    H24 3336   1.449   0.245   1.138
   93PEN    H25 3337   1.815   0.418   1.107
   93PEN    H26 3338   2.060   0.623   0.437
   93PEN    C27 3339   1.962   0.601   0.261
   93PEN    C28 3340   1.823   0.566   0.059
   93PEN    H29 3341   1.649   0.325   1.236
   93PEN    C30 3342   2.061   0.660   0.175
   93PEN    C31 3343   1.921   0.621  -0.017
   93PEN    H32 3344   1.743   0.536   0.018
   93PEN    C33 3345   2.042   0.670   0.041
   93PEN    H34 3346   2.142   0.692   0.212
   93PEN    H35 3347   1.909   0.628  -0.111
   93PEN    H36 3348   2.108   0.709  -0.014
   94PEN     C1 3349   1.954   1.302   0.482
   94PEN     C2 3350   2.053   1.359   0.398
   94PEN     C3 3351   1.831   1.253   0.421
   94PEN     C4 3352   1.972   1.292   0.620
   94PEN     C5 3353   2.035   1.369   0.261
   94PEN     H6 3354   2.134   1.391   0.437
   94PEN     C7 3355   1.815   1.265   0.282
   94PEN     C8 3356   1.733   1.197   0.504
   94PEN     C9 3357   1.874   1.236   0.703
   94PEN    H10 3358   2.053   1.323   0.658
   94PEN    C11 3359   2.135   1.428   0.175
   94PEN    C12 3360   1.913   1.322   0.201
   94PEN    H13 3361   1.735   1.233   0.242
   94PEN    H14 3362   1.652   1.166   0.467
   94PEN    C15 3363   1.751   1.187   0.643
   94PEN    C16 3364   1.890   1.224   0.843
   94PEN    C17 3365   2.115   1.437   0.041
   94PEN    H18 3366   2.216   1.460   0.212
   94PEN    C19 3367   1.897   1.334   0.059
   94PEN    C20 3368   1.652   1.130   0.726
   94PEN    C21 3369   1.792   1.167   0.924
   94PEN    H22 3370   1.970   1.256   0.883
   94PEN    C23 3371   1.995   1.389  -0.017
   94PEN    H24 3372   2.182   1.477  -0.014
   94PEN    H25 3373   1.817   1.303   0.018
   94PEN    H26 3374   1.571   1.098   0.687
   94PEN    C27 3375   1.670   1.120   0.864
   94PEN    C28 3376   1.808   1.155   1.066
   94PEN    H29 3377   1.982   1.396  -0.111
   94PEN    C30 3378   1.570   1.061   0.950
   94PEN    C31 3379   1.710   1.100   1.142
   94PEN    H32 3380   1.888   1.186   1.107
   94PEN    C33 3381   1.590   1.052   1.083
   94PEN    H34 3382   1.489   1.029   0.912
   94PEN    H35 3383   1.723   1.093   1.236
   94PEN    H36 3384   1.523   1.012   1.138
   95PEN     C1 3385   1.901   2.170   4.860
   95PEN     C2 3386   1.802   2.113   4.943
   95PEN     C3 3387   2.024   2.219   4.920
   95PEN     C4 3388   1.883   2.180   4.721
   95PEN     C5 3389   1.820   2.103   5.081
   95PEN     H6 3390   1.722   2.081   4.904
   95PEN     C7 3391   2.040   2.207   5.060
   95PEN     C8 3392   2.122   2.275   4.837
   95PEN     C9 3393   1.981   2.236   4.638
   95PEN    H10 3394   1.802   2.149   4.684
   95PEN    C11 3395   1.720   2.044   5.167
   95PEN    C12 3396   1.942   2.150   5.141
   95PEN    H13 3397   2.120   2.239   5.100
   95PEN    H14 3398   2.204   2.306   4.875
   95PEN    C15 3399   2.105   2.285   4.699
   95PEN    C16 3400   1.966   2.248   4.499
   95PEN    C17 3401   1.740   2.035   5.301
   95PEN    H18 3402   1.639   2.012   5.129
   95PEN    C19 3403   1.959   2.138   5.283
   95PEN    C20 3404   2.204   2.342   4.615
   95PEN    C21 3405   2.063   2.305   4.418
   95PEN    H22 3406   1.886   2.216   4.459
   95PEN    C23 3407   1.861   2.083   5.359
   95PEN    H24 3408   1.673   1.995   5.356
   95PEN    H25 3409   2.039   2.169   5.324
   95PEN    H26 3410   2.284   2.374   4.654
   95PEN    C27 3411   2.186   2.352   4.478
   95PEN    C28 3412   2.047   2.317   4.276
   95PEN    H29 3413   1.873   2.076   5.453
   95PEN    C30 3414   2.285   2.411   4.392
   95PEN    C31 3415   2.145   2.372   4.200
   95PEN    H32 3416   1.967   2.286   4.235
   95PEN    C33 3417   2.266   2.420   4.258
   95PEN    H34 3418   2.366   2.443   4.429
   95PEN    H35 3419   2.133   2.379   4.106
   95PEN    H36 3420   2.332   2.460   4.203
   96PEN     C1 3421   2.028   2.070   0.482
   96PEN     C2 3422   2.127   2.127   0.398
   96PEN     C3 3423   1.905   2.021   0.421
   96PEN     C4 3424   2.046   2.059   0.620
   96PEN     C5 3425   2.109   2.137   0.261
   96PEN     H6 3426   2.207   2.159   0.437
   96PEN     C7 3427   1.889   2.033   0.282
   96PEN     C8 3428   1.807   1.965   0.504
   96PEN     C9 3429   1.948   2.004   0.703
   96PEN    H10 3430   2.127   2.091   0.658
   96PEN    C11 3431   2.209   2.196   0.175
   96PEN    C12 3432   1.987   2.089   0.201
   96PEN    H13 3433   1.809   2.001   0.242
   96PEN    H14 3434   1.725   1.933   0.467
   96PEN    C15 3435   1.824   1.955   0.643
   96PEN    C16 3436   1.963   1.992   0.843
   96PEN    C17 3437   2.189   2.205   0.041
   96PEN    H18 3438   2.290   2.228   0.212
   96PEN    C19 3439   1.970   2.102   0.059
   96PEN    C20 3440   1.725   1.898   0.726
   96PEN    C21 3441   1.866   1.935   0.924
   96PEN    H22 3442   2.043   2.024   0.883
   96PEN    C23 3443   2.068   2.157  -0.017
   96PEN    H24 3444   2.256   2.244  -0.014
   96PEN    H25 3445   1.890   2.071   0.018
   96PEN    H26 3446   1.645   1.866   0.687
   96PEN    C27 3447   1.743   1.888   0.864
   96PEN    C28 3448   1.882   1.923   1.066
   96PEN    H29 3449   2.056   2.163  -0.111
   96PEN    C30 3450   1.644   1.829   0.950
   96PEN    C31 3451   1.784   1.868   1.142
   96PEN    H32 3452   1.962   1.953   1.107
   96PEN    C33 3453   1.663   1.819   1.083
   96PEN    H34 3454   1.563   1.797   0.912
   96PEN    H35 3455   1.796   1.861   1.236
   96PEN    H36 3456   1.597   1.780   1.138
   97PEN     C1 3457   2.178   3.053   4.699
   97PEN     C2 3458   2.277   3.110   4.615
   97PEN     C3 3459   2.055   3.004   4.638
   97PEN     C4 3460   2.196   3.043   4.837
   97PEN     C5 3461   2.259   3.120   4.478
   97PEN     H6 3462   2.358   3.142   4.654
   97PEN     C7 3463   2.039   3.016   4.499
   97PEN     C8 3464   1.957   2.948   4.721
   97PEN     C9 3465   2.098   2.987   4.920
   97PEN    H10 3466   2.277   3.074   4.875
   97PEN    C11 3467   2.359   3.179   4.392
   97PEN    C12 3468   2.137   3.072   4.418
   97PEN    H13 3469   1.959   2.984   4.459
   97PEN    H14 3470   1.876   2.916   4.684
   97PEN    C15 3471   1.975   2.938   4.860
   97PEN    C16 3472   2.114   2.975   5.060
   97PEN    C17 3473   2.339   3.188   4.258
   97PEN    H18 3474   2.440   3.211   4.429
   97PEN    C19 3475   2.121   3.085   4.276
   97PEN    C20 3476   1.876   2.881   4.943
   97PEN    C21 3477   2.016   2.918   5.141
   97PEN    H22 3478   2.194   3.007   5.100
   97PEN    C23 3479   2.218   3.140   4.200
   97PEN    H24 3480   2.406   3.227   4.203
   97PEN    H25 3481   2.041   3.054   4.235
   97PEN    H26 3482   1.795   2.849   4.904
   97PEN    C27 3483   1.894   2.871   5.081
   97PEN    C28 3484   2.032   2.906   5.283
   97PEN    H29 3485   2.206   3.147   4.106
   97PEN    C30 3486   1.794   2.812   5.167
   97PEN    C31 3487   1.934   2.851   5.359
   97PEN    H32 3488   2.112   2.936   5.324
   97PEN    C33 3489   1.814   2.802   5.301
   97PEN    H34 3490   1.713   2.780   5.129
   97PEN    H35 3491   1.947   2.844   5.453
   97PEN    H36 3492   1.747   2.763   5.356
   98PEN     C1 3493   2.101   2.838   0.482
   98PEN     C2 3494   2.201   2.895   0.398
   98PEN     C3 3495   1.978   2.789   0.421
   98PEN     C4 3496   2.119   2.827   0.620
   98PEN     C5 3497   2.183   2.905   0.261
   98PEN     H6 3498   2.281   2.927   0.437
   98PEN     C7 3499   1.963   2.801   0.282
   98PEN     C8 3500   1.880   2.733   0.504
   98PEN     C9 3501   2.021   2.772   0.703
   98PEN    H10 3502   2.201   2.859   0.658
   98PEN    C11 3503   2.282   2.963   0.175
   98PEN    C12 3504   2.060   2.857   0.201
   98PEN    H13 3505   1.882   2.769   0.242
   98PEN    H14 3506   1.799   2.701   0.467
   98PEN    C15 3507   1.898   2.723   0.643
   98PEN    C16 3508   2.037   2.760   0.843
   98PEN    C17 3509   2.262   2.973   0.041
   98PEN    H18 3510   2.363   2.996   0.212
   98PEN    C19 3511   2.044   2.870   0.059
   98PEN    C20 3512   1.799   2.666   0.726
   98PEN    C21 3513   1.939   2.703   0.924
   98PEN    H22 3514   2.117   2.791   0.883
   98PEN    C23 3515   2.142   2.925  -0.017
   98PEN    H24 3516   2.329   3.012  -0.014
   98PEN    H25 3517   1.964   2.839   0.018
   98PEN    H26 3518   1.718   2.634   0.687
   98PEN    C27 3519   1.817   2.656   0.864
   98PEN    C28 3520   1.956   2.691   1.066
   98PEN    H29 3521   2.130   2.931  -0.111
   98PEN    C30 3522   1.717   2.597   0.950
   98PEN    C31 3523   1.858   2.636   1.142
   98PEN    H32 3524   2.036   2.721   1.107
   98PEN    C33 3525   1.737   2.587   1.083
   98PEN    H34 3526   1.636   2.565   0.912
   98PEN    H35 3527   1.870   2.629   1.236
   98PEN    H36 3528   1.670   2.548   1.138
   99PEN     C1 3529   2.072   4.146   3.454
   99PEN     C2 3530   1.973   4.089   3.538
   99PEN     C3 3531   2.195   4.195   3.515
   99PEN     C4 3532   2.054   4.156   3.316
   99PEN     C5 3533   1.991   4.079   3.675
   99PEN     H6 3534   1.892   4.057   3.499
   99PEN     C7 3535   2.211   4.183   3.654
   99PEN     C8 3536   2.293   4.251   3.432
   99PEN     C9 3537   2.152   4.212   3.233
   99PEN    H10 3538   1.973   4.125   3.278
   99PEN    C11 3539   1.891   4.020   3.761
   99PEN    C12 3540   2.113   4.126   3.735
   99PEN    H13 3541   2.291   4.215   3.694
   99PEN    H14 3542   2.375   4.282   3.469
   99PEN    C15 3543   2.275   4.261   3.293
   99PEN    C16 3544   2.136   4.224   3.093
   99PEN    C17 3545   1.911   4.010   3.895
   99PEN    H18 3546   1.810   3.988   3.724
   99PEN    C19 3547   2.129   4.114   3.877
   99PEN    C20 3548   2.374   4.318   3.210
   99PEN    C21 3549   2.234   4.280   3.012
   99PEN    H22 3550   2.056   4.192   3.053
   99PEN    C23 3551   2.032   4.059   3.953
   99PEN    H24 3552   1.844   3.971   3.950
   99PEN    H25 3553   2.209   4.144   3.918
   99PEN    H26 3554   2.455   4.350   3.249
   99PEN    C27 3555   2.357   4.328   3.072
   99PEN    C28 3556   2.218   4.293   2.870
   99PEN    H29 3557   2.044   4.052   4.047
   99PEN    C30 3558   2.456   4.387   2.986
   99PEN    C31 3559   2.316   4.348   2.794
   99PEN    H32 3560   2.138   4.262   2.829
   99PEN    C33 3561   2.436   4.396   2.852
   99PEN    H34 3562   2.537   4.419   3.023
   99PEN    H35 3563   2.303   4.355   2.700
   99PEN    H36 3564   2.503   4.436   2.797
  100PEN     C1 3565   1.972   3.491   0.643
  100PEN     C2 3566   1.873   3.434   0.726
  100PEN     C3 3567   2.095   3.539   0.703
  100PEN     C4 3568   1.954   3.501   0.504
  100PEN     C5 3569   1.890   3.423   0.864
  100PEN     H6 3570   1.792   3.401   0.687
  100PEN     C7 3571   2.110   3.528   0.843
  100PEN     C8 3572   2.193   3.595   0.620
  100PEN     C9 3573   2.052   3.557   0.421
  100PEN    H10 3574   1.872   3.469   0.467
  100PEN    C11 3575   1.791   3.365   0.950
  100PEN    C12 3576   2.013   3.471   0.924
  100PEN    H13 3577   2.191   3.559   0.883
  100PEN    H14 3578   2.274   3.627   0.658
  100PEN    C15 3579   2.175   3.605   0.482
  100PEN    C16 3580   2.036   3.569   0.282
  100PEN    C17 3581   1.811   3.355   1.083
  100PEN    H18 3582   1.710   3.332   0.912
  100PEN    C19 3583   2.029   3.458   1.066
  100PEN    C20 3584   2.274   3.663   0.398
  100PEN    C21 3585   2.134   3.625   0.201
  100PEN    H22 3586   1.956   3.537   0.242
  100PEN    C23 3587   1.931   3.403   1.142
  100PEN    H24 3588   1.744   3.316   1.138
  100PEN    H25 3589   2.109   3.489   1.107
  100PEN    H26 3590   2.355   3.695   0.437
  100PEN    C27 3591   2.256   3.673   0.261
  100PEN    C28 3592   2.117   3.638   0.059
  100PEN    H29 3593   1.943   3.397   1.236
  100PEN    C30 3594   2.356   3.731   0.175
  100PEN    C31 3595   2.215   3.693  -0.017
  100PEN    H32 3596   2.037   3.607   0.018
  100PEN    C33 3597   2.336   3.741   0.041
  100PEN    H34 3598   2.437   3.764   0.212
  100PEN    H35 3599   2.203   3.699  -0.111
  100PEN    H36 3600   2.403   3.780  -0.014
  101PEN     C1 3601   2.576   4.257   1.869
  101PEN     C2 3602   2.675   4.256   1.767
  101PEN     C3 3603   2.452   4.330   1.846
  101PEN     C4 3604   2.594   4.189   1.990
  101PEN     C5 3605   2.655   4.322   1.647
  101PEN     H6 3606   2.756   4.210   1.781
  101PEN     C7 3607   2.435   4.398   1.723
  101PEN     C8 3608   2.355   4.330   1.946
  101PEN     C9 3609   2.496   4.189   2.090
  101PEN    H10 3610   2.675   4.142   2.003
  101PEN    C11 3611   2.754   4.321   1.543
  101PEN    C12 3612   2.532   4.395   1.624
  101PEN    H13 3613   2.355   4.446   1.708
  101PEN    H14 3614   2.273   4.378   1.933
  101PEN    C15 3615   2.372   4.262   2.067
  101PEN    C16 3616   2.513   4.122   2.213
  101PEN    C17 3617   2.733   4.385   1.426
  101PEN    H18 3618   2.835   4.274   1.557
  101PEN    C19 3619   2.515   4.461   1.499
  101PEN    C20 3620   2.273   4.263   2.169
  101PEN    C21 3621   2.416   4.125   2.312
  101PEN    H22 3622   2.593   4.073   2.228
  101PEN    C23 3623   2.611   4.457   1.403
  101PEN    H24 3624   2.799   4.383   1.358
  101PEN    H25 3625   2.435   4.509   1.482
  101PEN    H26 3626   2.192   4.310   2.155
  101PEN    C27 3627   2.293   4.197   2.289
  101PEN    C28 3628   2.433   4.059   2.437
  101PEN    H29 3629   2.597   4.501   1.320
  101PEN    C30 3630   2.194   4.199   2.393
  101PEN    C31 3631   2.337   4.063   2.533
  101PEN    H32 3632   2.513   4.010   2.454
  101PEN    C33 3633   2.215   4.134   2.510
  101PEN    H34 3634   2.113   4.246   2.379
  101PEN    H35 3635   2.351   4.018   2.616
  101PEN    H36 3636   2.149   4.137   2.578
  102PEN     C1 3637   2.472   4.918   4.879
  102PEN     C2 3638   2.373   4.918   4.980
  102PEN     C3 3639   2.596   4.845   4.902
  102PEN     C4 3640   2.455   4.986   4.757
  102PEN     C5 3641   2.393   4.852   5.101
  102PEN     H6 3642   2.292   4.965   4.966
  102PEN     C7 3643   2.613   4.777   5.024
  102PEN     C8 3644   2.694   4.844   4.801
  102PEN     C9 3645   2.552   4.985   4.657
  102PEN    H10 3646   2.373   5.033   4.744
  102PEN    C11 3647   2.295   4.854   5.204
  102PEN    C12 3648   2.516   4.780   5.123
  102PEN    H13 3649   2.693   4.728   5.039
  102PEN    H14 3650   2.775   4.797   4.814
  102PEN    C15 3651   2.677   4.912   4.680
  102PEN    C16 3652   2.535   5.053   4.534
  102PEN    C17 3653   2.316   4.790   5.321
  102PEN    H18 3654   2.213   4.901   5.191
  102PEN    C19 3655   2.533   4.714   5.249
  102PEN    C20 3656   2.775   4.912   4.578
  102PEN    C21 3657   2.633   5.050   4.435
  102PEN    H22 3658   2.455   5.102   4.519
  102PEN    C23 3659   2.437   4.718   5.344
  102PEN    H24 3660   2.249   4.792   5.389
  102PEN    H25 3661   2.613   4.666   5.265
  102PEN    H26 3662   2.857   4.865   4.593
  102PEN    C27 3663   2.756   4.978   4.458
  102PEN    C28 3664   2.615   5.116   4.310
  102PEN    H29 3665   2.451   4.674   5.427
  102PEN    C30 3666   2.854   4.976   4.354
  102PEN    C31 3667   2.711   5.112   4.214
  102PEN    H32 3668   2.535   5.164   4.294
  102PEN    C33 3669   2.833   5.040   4.237
  102PEN    H34 3670   2.936   4.929   4.368
  102PEN    H35 3671   2.697   5.156   4.131
  102PEN    H36 3672   2.900   5.038   4.170
  103PEN     C1 3673   0.573   1.402   4.860
  103PEN     C2 3674   0.473   1.345   4.943
  103PEN     C3 3675   0.696   1.451   4.920
  103PEN     C4 3676   0.555   1.412   4.721
  103PEN     C5 3677   0.491   1.335   5.081
  103PEN     H6 3678   0.393   1.313   4.904
  103PEN     C7 3679   0.711   1.439   5.060
  103PEN     C8 3680   0.794   1.507   4.837
  103PEN     C9 3681   0.653   1.468   4.638
  103PEN    H10 3682   0.473   1.381   4.684
  103PEN    C11 3683   0.392   1.276   5.167
  103PEN    C12 3684   0.614   1.383   5.141
  103PEN    H13 3685   0.791   1.471   5.100
  103PEN    H14 3686   0.875   1.539   4.875
  103PEN    C15 3687   0.776   1.517   4.699
  103PEN    C16 3688   0.637   1.480   4.499
  103PEN    C17 3689   0.411   1.267   5.301
  103PEN    H18 3690   0.311   1.244   5.129
  103PEN    C19 3691   0.630   1.370   5.283
  103PEN    C20 3692   0.875   1.574   4.615
  103PEN    C21 3693   0.735   1.537   4.418
  103PEN    H22 3694   0.557   1.448   4.459
  103PEN    C23 3695   0.532   1.315   5.359
  103PEN    H24 3696   0.345   1.228   5.356
  103PEN    H25 3697   0.710   1.401   5.324
  103PEN    H26 3698   0.956   1.606   4.654
  103PEN    C27 3699   0.857   1.584   4.478
  103PEN    C28 3700   0.718   1.549   4.276
  103PEN    H29 3701   0.544   1.308   5.453
  103PEN    C30 3702   0.957   1.643   4.392
  103PEN    C31 3703   0.816   1.604   4.200
  103PEN    H32 3704   0.638   1.519   4.235
  103PEN    C33 3705   0.937   1.653   4.258
  103PEN    H34 3706   1.038   1.675   4.429
  103PEN    H35 3707   0.804   1.611   4.106
  103PEN    H36 3708   1.004   1.692   4.203
  104PEN     C1 3709   0.676   0.862   1.887
  104PEN     C2 3710   0.775   0.919   1.804
  104PEN     C3 3711   0.552   0.813   1.827
  104PEN     C4 3712   0.694   0.851   2.026
  104PEN     C5 3713   0.757   0.929   1.667
  104PEN     H6 3714   0.855   0.951   1.843
  104PEN     C7 3715   0.537   0.825   1.688
  104PEN     C8 3716   0.454   0.757   1.910
  104PEN     C9 3717   0.595   0.796   2.109
  104PEN    H10 3718   0.775   0.883   2.063
  104PEN    C11 3719   0.857   0.988   1.580
  104PEN    C12 3720   0.634   0.881   1.607
  104PEN    H13 3721   0.457   0.793   1.648
  104PEN    H14 3722   0.373   0.725   1.873
  104PEN    C15 3723   0.472   0.747   2.049
  104PEN    C16 3724   0.611   0.784   2.248
  104PEN    C17 3725   0.837   0.997   1.447
  104PEN    H18 3726   0.937   1.020   1.618
  104PEN    C19 3727   0.618   0.894   1.464
  104PEN    C20 3728   0.373   0.690   2.132
  104PEN    C21 3729   0.513   0.727   2.329
  104PEN    H22 3730   0.691   0.816   2.288
  104PEN    C23 3731   0.716   0.949   1.388
  104PEN    H24 3732   0.904   1.036   1.392
  104PEN    H25 3733   0.538   0.863   1.423
  104PEN    H26 3734   0.293   0.658   2.093
  104PEN    C27 3735   0.391   0.680   2.269
  104PEN    C28 3736   0.530   0.715   2.471
  104PEN    H29 3737   0.704   0.955   1.294
  104PEN    C30 3738   0.291   0.621   2.356
  104PEN    C31 3739   0.432   0.660   2.548
  104PEN    H32 3740   0.610   0.745   2.513
  104PEN    C33 3741   0.311   0.611   2.489
  104PEN    H34 3742   0.210   0.589   2.318
  104PEN    H35 3743   0.444   0.653   2.642
  104PEN    H36 3744   0.244   0.572   2.544
  105PEN     C1 3745   0.522   1.075   3.454
  105PEN     C2 3746   0.423   1.017   3.538
  105PEN     C3 3747   0.646   1.123   3.515
  105PEN     C4 3748   0.505   1.085   3.316
  105PEN     C5 3749   0.441   1.007   3.675
  105PEN     H6 3750   0.343   0.985   3.499
  105PEN     C7 3751   0.661   1.111   3.654
  105PEN     C8 3752   0.744   1.179   3.432
  105PEN     C9 3753   0.603   1.141   3.233
  105PEN    H10 3754   0.423   1.053   3.278
  105PEN    C11 3755   0.342   0.949   3.761
  105PEN    C12 3756   0.564   1.055   3.735
  105PEN    H13 3757   0.741   1.143   3.694
  105PEN    H14 3758   0.825   1.211   3.469
  105PEN    C15 3759   0.726   1.189   3.293
  105PEN    C16 3760   0.587   1.152   3.093
  105PEN    C17 3761   0.361   0.939   3.895
  105PEN    H18 3762   0.261   0.916   3.724
  105PEN    C19 3763   0.580   1.042   3.877
  105PEN    C20 3764   0.825   1.246   3.210
  105PEN    C21 3765   0.685   1.209   3.012
  105PEN    H22 3766   0.507   1.121   3.053
  105PEN    C23 3767   0.482   0.987   3.953
  105PEN    H24 3768   0.294   0.900   3.950
  105PEN    H25 3769   0.660   1.073   3.918
  105PEN    H26 3770   0.905   1.279   3.249
  105PEN    C27 3771   0.807   1.257   3.072
  105PEN    C28 3772   0.668   1.222   2.870
  105PEN    H29 3773   0.494   0.981   4.047
  105PEN    C30 3774   0.907   1.315   2.986
  105PEN    C31 3775   0.766   1.277   2.794
  105PEN    H32 3776   0.588   1.191   2.829
  105PEN    C33 3777   0.887   1.325   2.852
  105PEN    H34 3778   0.988   1.348   3.023
  105PEN    H35 3779   0.754   1.283   2.700
  105PEN    H36 3780   0.954   1.364   2.797
  106PEN     C1 3781   0.826   1.845   6.104
  106PEN     C2 3782   0.925   1.902   6.021
  106PEN     C3 3783   0.703   1.796   6.044
  106PEN     C4 3784   0.844   1.835   6.243
  106PEN     C5 3785   0.907   1.912   5.884
  106PEN     H6 3786   1.006   1.934   6.060
  106PEN     C7 3787   0.687   1.808   5.905
  106PEN     C8 3788   0.605   1.740   6.127
  106PEN     C9 3789   0.746   1.779   6.326
  106PEN    H10 3790   0.925   1.866   6.280
  106PEN    C11 3791   1.007   1.971   5.797
  106PEN    C12 3792   0.785   1.864   5.824
  106PEN    H13 3793   0.607   1.776   5.865
  106PEN    H14 3794   0.523   1.708   6.090
  106PEN    C15 3795   0.623   1.730   6.266
  106PEN    C16 3796   0.761   1.767   6.465
  106PEN    C17 3797   0.987   1.980   5.664
  106PEN    H18 3798   1.088   2.003   5.835
  106PEN    C19 3799   0.768   1.877   5.681
  106PEN    C20 3800   0.524   1.673   6.349
  106PEN    C21 3801   0.664   1.710   6.546
  106PEN    H22 3802   0.842   1.799   6.505
  106PEN    C23 3803   0.866   1.932   5.605
  106PEN    H24 3804   1.054   2.019   5.609
  106PEN    H25 3805   0.688   1.846   5.640
  106PEN    H26 3806   0.443   1.641   6.310
  106PEN    C27 3807   0.541   1.663   6.486
  106PEN    C28 3808   0.680   1.698   6.689
  106PEN    H29 3809   0.854   1.939   5.511
  106PEN    C30 3810   0.442   1.604   6.573
  106PEN    C31 3811   0.582   1.643   6.765
  106PEN    H32 3812   0.760   1.728   6.730
  106PEN    C33 3813   0.462   1.594   6.706
  106PEN    H34 3814   0.361   1.572   6.535
  106PEN    H35 3815   0.594   1.636   6.859
  106PEN    H36 3816   0.395   1.555   6.761
  107PEN     C1 3817   2.432   2.169   6.086
  107PEN     C2 3818   2.531   2.168   5.984
  107PEN     C3 3819   2.308   2.241   6.063
  107PEN     C4 3820   2.449   2.101   6.207
  107PEN     C5 3821   2.511   2.234   5.864
  107PEN     H6 3822   2.612   2.121   5.998
  107PEN     C7 3823   2.291   2.309   5.940
  107PEN     C8 3824   2.210   2.242   6.163
  107PEN     C9 3825   2.352   2.101   6.307
  107PEN    H10 3826   2.531   2.053   6.220
  107PEN    C11 3827   2.610   2.232   5.760
  107PEN    C12 3828   2.388   2.306   5.841
  107PEN    H13 3829   2.211   2.358   5.925
  107PEN    H14 3830   2.129   2.289   6.150
  107PEN    C15 3831   2.227   2.174   6.284
  107PEN    C16 3832   2.369   2.033   6.430
  107PEN    C17 3833   2.589   2.297   5.643
  107PEN    H18 3834   2.691   2.185   5.774
  107PEN    C19 3835   2.371   2.372   5.716
  107PEN    C20 3836   2.129   2.174   6.386
  107PEN    C21 3837   2.272   2.036   6.529
  107PEN    H22 3838   2.449   1.985   6.445
  107PEN    C23 3839   2.467   2.368   5.620
  107PEN    H24 3840   2.655   2.294   5.575
  107PEN    H25 3841   2.291   2.421   5.699
  107PEN    H26 3842   2.048   2.221   6.372
  107PEN    C27 3843   2.149   2.109   6.506
  107PEN    C28 3844   2.289   1.970   6.654
  107PEN    H29 3845   2.453   2.413   5.537
  107PEN    C30 3846   2.050   2.110   6.610
  107PEN    C31 3847   2.193   1.974   6.750
  107PEN    H32 3848   2.369   1.922   6.671
  107PEN    C33 3849   2.071   2.046   6.727
  107PEN    H34 3850   1.969   2.157   6.596
  107PEN    H35 3851   2.207   1.930   6.833
  107PEN    H36 3852   2.005   2.048   6.795
  108PEN     C1 3853   2.077   1.191   2.067
  108PEN     C2 3854   1.979   1.191   2.169
  108PEN     C3 3855   2.202   1.118   2.090
  108PEN     C4 3856   2.060   1.259   1.946
  108PEN     C5 3857   1.998   1.125   2.289
  108PEN     H6 3858   1.897   1.238   2.155
  108PEN     C7 3859   2.219   1.050   2.213
  108PEN     C8 3860   2.299   1.118   1.990
  108PEN     C9 3861   2.158   1.258   1.846
  108PEN    H10 3862   1.979   1.306   1.933
  108PEN    C11 3863   1.900   1.127   2.393
  108PEN    C12 3864   2.121   1.053   2.312
  108PEN    H13 3865   2.299   1.002   2.228
  108PEN    H14 3866   2.380   1.070   2.003
  108PEN    C15 3867   2.282   1.186   1.869
  108PEN    C16 3868   2.141   1.326   1.723
  108PEN    C17 3869   1.921   1.063   2.510
  108PEN    H18 3870   1.818   1.174   2.379
  108PEN    C19 3871   2.138   0.987   2.437
  108PEN    C20 3872   2.380   1.185   1.767
  108PEN    C21 3873   2.238   1.323   1.624
  108PEN    H22 3874   2.060   1.375   1.708
  108PEN    C23 3875   2.043   0.991   2.533
  108PEN    H24 3876   1.854   1.065   2.578
  108PEN    H25 3877   2.219   0.939   2.454
  108PEN    H26 3878   2.462   1.138   1.781
  108PEN    C27 3879   2.361   1.251   1.647
  108PEN    C28 3880   2.221   1.389   1.499
  108PEN    H29 3881   2.057   0.947   2.616
  108PEN    C30 3882   2.459   1.249   1.543
  108PEN    C31 3883   2.316   1.385   1.403
  108PEN    H32 3884   2.140   1.437   1.482
  108PEN    C33 3885   2.438   1.314   1.426
  108PEN    H34 3886   2.541   1.202   1.557
  108PEN    H35 3887   2.303   1.430   1.320
  108PEN    H36 3888   2.505   1.311   1.358
  109PEN     C1 3889   2.332   1.513   3.274
  109PEN     C2 3890   2.431   1.513   3.172
  109PEN     C3 3891   2.208   1.586   3.251
  109PEN     C4 3892   2.349   1.445   3.396
  109PEN     C5 3893   2.411   1.579   3.052
  109PEN     H6 3894   2.512   1.466   3.187
  109PEN     C7 3895   2.191   1.654   3.129
  109PEN     C8 3896   2.110   1.587   3.352
  109PEN     C9 3897   2.252   1.446   3.496
  109PEN    H10 3898   2.431   1.398   3.409
  109PEN    C11 3899   2.509   1.577   2.949
  109PEN    C12 3900   2.288   1.651   3.030
  109PEN    H13 3901   2.111   1.703   3.114
  109PEN    H14 3902   2.029   1.634   3.338
  109PEN    C15 3903   2.127   1.519   3.473
  109PEN    C16 3904   2.269   1.378   3.619
  109PEN    C17 3905   2.488   1.641   2.831
  109PEN    H18 3906   2.591   1.530   2.962
  109PEN    C19 3907   2.271   1.717   2.904
  109PEN    C20 3908   2.029   1.519   3.575
  109PEN    C21 3909   2.171   1.381   3.717
  109PEN    H22 3910   2.349   1.329   3.634
  109PEN    C23 3911   2.367   1.713   2.809
  109PEN    H24 3912   2.555   1.639   2.764
  109PEN    H25 3913   2.191   1.765   2.888
  109PEN    H26 3914   1.947   1.566   3.560
  109PEN    C27 3915   2.048   1.453   3.695
  109PEN    C28 3916   2.189   1.315   3.843
  109PEN    H29 3917   2.353   1.757   2.726
  109PEN    C30 3918   1.950   1.455   3.799
  109PEN    C31 3919   2.093   1.319   3.939
  109PEN    H32 3920   2.269   1.267   3.859
  109PEN    C33 3921   1.971   1.391   3.916
  109PEN    H34 3922   1.868   1.502   3.785
  109PEN    H35 3923   2.107   1.275   4.022
  109PEN    H36 3924   1.904   1.393   3.983
  110PEN     C1 3925   2.232   0.858   0.463
  110PEN     C2 3926   2.330   0.857   0.361
  110PEN     C3 3927   2.108   0.931   0.440
  110PEN     C4 3928   2.249   0.790   0.584
  110PEN     C5 3929   2.311   0.923   0.241
  110PEN     H6 3930   2.412   0.811   0.376
  110PEN     C7 3931   2.090   0.998   0.317
  110PEN     C8 3932   2.010   0.931   0.540
  110PEN     C9 3933   2.151   0.790   0.685
  110PEN    H10 3934   2.330   0.743   0.597
  110PEN    C11 3935   2.409   0.922   0.137
  110PEN    C12 3936   2.188   0.996   0.218
  110PEN    H13 3937   2.010   1.047   0.302
  110PEN    H14 3938   1.929   0.979   0.527
  110PEN    C15 3939   2.027   0.863   0.662
  110PEN    C16 3940   2.168   0.723   0.807
  110PEN    C17 3941   2.388   0.986   0.020
  110PEN    H18 3942   2.491   0.875   0.151
  110PEN    C19 3943   2.171   1.062   0.093
  110PEN    C20 3944   1.929   0.864   0.763
  110PEN    C21 3945   2.071   0.725   0.906
  110PEN    H22 3946   2.249   0.674   0.822
  110PEN    C23 3947   2.266   1.057  -0.003
  110PEN    H24 3948   2.455   0.984  -0.048
  110PEN    H25 3949   2.090   1.110   0.076
  110PEN    H26 3950   1.847   0.911   0.749
  110PEN    C27 3951   1.948   0.798   0.883
  110PEN    C28 3952   2.088   0.659   1.031
  110PEN    H29 3953   2.252   1.102  -0.086
  110PEN    C30 3954   1.850   0.799   0.987
  110PEN    C31 3955   1.993   0.664   1.127
  110PEN    H32 3956   2.169   0.611   1.048
  110PEN    C33 3957   1.871   0.735   1.104
  110PEN    H34 3958   1.768   0.846   0.974
  110PEN    H35 3959   2.006   0.619   1.210
  110PEN    H36 3960   1.804   0.737   1.172
  111PEN     C1 3961   2.177   1.846   4.879
  111PEN     C2 3962   2.079   1.847   4.980
  111PEN     C3 3963   2.302   1.773   4.902
  111PEN     C4 3964   2.160   1.914   4.757
  111PEN     C5 3965   2.098   1.781   5.101
  111PEN     H6 3966   1.998   1.894   4.966
  111PEN     C7 3967   2.319   1.706   5.024
  111PEN     C8 3968   2.399   1.773   4.801
  111PEN     C9 3969   2.258   1.914   4.657
  111PEN    H10 3970   2.079   1.962   4.744
  111PEN    C11 3971   2.000   1.783   5.204
  111PEN    C12 3972   2.222   1.708   5.123
  111PEN    H13 3973   2.399   1.657   5.039
  111PEN    H14 3974   2.481   1.726   4.814
  111PEN    C15 3975   2.382   1.841   4.680
  111PEN    C16 3976   2.241   1.981   4.534
  111PEN    C17 3977   2.021   1.718   5.321
  111PEN    H18 3978   1.919   1.829   5.191
  111PEN    C19 3979   2.239   1.642   5.249
  111PEN    C20 3980   2.481   1.840   4.578
  111PEN    C21 3981   2.338   1.979   4.435
  111PEN    H22 3982   2.161   2.030   4.519
  111PEN    C23 3983   2.143   1.647   5.344
  111PEN    H24 3984   1.955   1.721   5.389
  111PEN    H25 3985   2.319   1.594   5.265
  111PEN    H26 3986   2.562   1.794   4.593
  111PEN    C27 3987   2.461   1.906   4.458
  111PEN    C28 3988   2.321   2.045   4.310
  111PEN    H29 3989   2.157   1.602   5.427
  111PEN    C30 3990   2.560   1.905   4.354
  111PEN    C31 3991   2.417   2.040   4.214
  111PEN    H32 3992   2.241   2.093   4.294
  111PEN    C33 3993   2.538   1.969   4.237
  111PEN    H34 3994   2.641   1.858   4.368
  111PEN    H35 3995   2.403   2.085   4.131
  111PEN    H36 3996   2.605   1.967   4.170
  112PEN     C1 3997   0.696   2.498   6.266
  112PEN     C2 3998   0.597   2.441   6.349
  112PEN     C3 3999   0.819   2.547   6.326
  112PEN     C4 4000   0.678   2.508   6.127
  112PEN     C5 4001   0.615   2.431   6.486
  112PEN     H6 4002   0.517   2.409   6.310
  112PEN     C7 4003   0.835   2.535   6.465
  112PEN     C8 4004   0.918   2.602   6.243
  112PEN     C9 4005   0.776   2.564   6.044
  112PEN    H10 4006   0.597   2.476   6.090
  112PEN    C11 4007   0.515   2.372   6.573
  112PEN    C12 4008   0.737   2.478   6.546
  112PEN    H13 4009   0.915   2.566   6.505
  112PEN    H14 4010   0.999   2.634   6.280
  112PEN    C15 4011   0.900   2.613   6.104
  112PEN    C16 4012   0.761   2.576   5.905
  112PEN    C17 4013   0.535   2.362   6.706
  112PEN    H18 4014   0.434   2.340   6.535
  112PEN    C19 4015   0.754   2.466   6.689
  112PEN    C20 4016   0.999   2.670   6.021
  112PEN    C21 4017   0.858   2.632   5.824
  112PEN    H22 4018   0.681   2.544   5.865
  112PEN    C23 4019   0.656   2.411   6.765
  112PEN    H24 4020   0.468   2.323   6.761
  112PEN    H25 4021   0.834   2.496   6.730
  112PEN    H26 4022   1.079   2.702   6.060
  112PEN    C27 4023   0.981   2.680   5.884
  112PEN    C28 4024   0.842   2.645   5.681
  112PEN    H29 4025   0.668   2.404   6.859
  112PEN    C30 4026   1.080   2.738   5.797
  112PEN    C31 4027   0.940   2.700   5.605
  112PEN    H32 4028   0.762   2.614   5.640
  112PEN    C33 4029   1.061   2.748   5.664
  112PEN    H34 4030   1.161   2.771   5.835
  112PEN    H35 4031   0.928   2.706   5.511
  112PEN    H36 4032   1.128   2.787   5.609
  113PEN     C1 4033   0.749   1.630   1.887
  113PEN     C2 4034   0.848   1.687   1.804
  113PEN     C3 4035   0.626   1.581   1.827
  113PEN     C4 4036   0.767   1.619   2.026
  113PEN     C5 4037   0.831   1.697   1.667
  113PEN     H6 4038   0.929   1.719   1.843
  113PEN     C7 4039   0.610   1.593   1.688
  113PEN     C8 4040   0.528   1.525   1.910
  113PEN     C9 4041   0.669   1.564   2.109
  113PEN    H10 4042   0.848   1.651   2.063
  113PEN    C11 4043   0.930   1.755   1.580
  113PEN    C12 4044   0.708   1.649   1.607
  113PEN    H13 4045   0.530   1.561   1.648
  113PEN    H14 4046   0.447   1.493   1.873
  113PEN    C15 4047   0.546   1.515   2.049
  113PEN    C16 4048   0.685   1.552   2.248
  113PEN    C17 4049   0.910   1.765   1.447
  113PEN    H18 4050   1.011   1.788   1.618
  113PEN    C19 4051   0.692   1.662   1.464
  113PEN    C20 4052   0.447   1.458   2.132
  113PEN    C21 4053   0.587   1.495   2.329
  113PEN    H22 4054   0.765   1.583   2.288
  113PEN    C23 4055   0.790   1.717   1.388
  113PEN    H24 4056   0.977   1.804   1.392
  113PEN    H25 4057   0.612   1.631   1.423
  113PEN    H26 4058   0.366   1.426   2.093
  113PEN    C27 4059   0.465   1.448   2.269
  113PEN    C28 4060   0.603   1.483   2.471
  113PEN    H29 4061   0.777   1.723   1.294
  113PEN    C30 4062   0.365   1.389   2.356
  113PEN    C31 4063   0.506   1.427   2.548
  113PEN    H32 4064   0.683   1.513   2.513
  113PEN    C33 4065   0.385   1.379   2.489
  113PEN    H34 4066   0.284   1.357   2.318
  113PEN    H35 4067   0.518   1.421   2.642
  113PEN    H36 4068   0.318   1.340   2.544
  114PEN     C1 4069   0.596   1.842   3.454
  114PEN     C2 4070   0.497   1.785   3.538
  114PEN     C3 4071   0.719   1.891   3.515
  114PEN     C4 4072   0.578   1.853   3.316
  114PEN     C5 4073   0.515   1.775   3.675
  114PEN     H6 4074   0.416   1.753   3.499
  114PEN     C7 4075   0.735   1.879   3.654
  114PEN     C8 4076   0.817   1.947   3.432
  114PEN     C9 4077   0.676   1.908   3.233
  114PEN    H10 4078   0.497   1.821   3.278
  114PEN    C11 4079   0.415   1.717   3.761
  114PEN    C12 4080   0.637   1.823   3.735
  114PEN    H13 4081   0.815   1.911   3.694
  114PEN    H14 4082   0.899   1.979   3.469
  114PEN    C15 4083   0.799   1.957   3.293
  114PEN    C16 4084   0.661   1.920   3.093
  114PEN    C17 4085   0.435   1.707   3.895
  114PEN    H18 4086   0.334   1.684   3.724
  114PEN    C19 4087   0.654   1.810   3.877
  114PEN    C20 4088   0.899   2.014   3.210
  114PEN    C21 4089   0.758   1.977   3.012
  114PEN    H22 4090   0.580   1.889   3.053
  114PEN    C23 4091   0.556   1.755   3.953
  114PEN    H24 4092   0.368   1.668   3.950
  114PEN    H25 4093   0.734   1.841   3.918
  114PEN    H26 4094   0.979   2.046   3.249
  114PEN    C27 4095   0.881   2.024   3.072
  114PEN    C28 4096   0.742   1.989   2.870
  114PEN    H29 4097   0.568   1.749   4.047
  114PEN    C30 4098   0.980   2.083   2.986
  114PEN    C31 4099   0.840   2.045   2.794
  114PEN    H32 4100   0.662   1.959   2.829
  114PEN    C33 4101   0.960   2.093   2.852
  114PEN    H34 4102   1.061   2.115   3.023
  114PEN    H35 4103   0.828   2.051   2.700
  114PEN    H36 4104   1.027   2.132   2.797
  115PEN     C1 4105   0.646   2.170   4.860
  115PEN     C2 4106   0.547   2.113   4.943
  115PEN     C3 4107   0.769   2.219   4.920
  115PEN     C4 4108   0.628   2.180   4.721
  115PEN     C5 4109   0.565   2.103   5.081
  115PEN     H6 4110   0.466   2.081   4.904
  115PEN     C7 4111   0.785   2.207   5.060
  115PEN     C8 4112   0.867   2.275   4.837
  115PEN     C9 4113   0.726   2.236   4.638
  115PEN    H10 4114   0.547   2.149   4.684
  115PEN    C11 4115   0.465   2.044   5.167
  115PEN    C12 4116   0.687   2.150   5.141
  115PEN    H13 4117   0.865   2.239   5.100
  115PEN    H14 4118   0.949   2.306   4.875
  115PEN    C15 4119   0.849   2.285   4.699
  115PEN    C16 4120   0.711   2.248   4.499
  115PEN    C17 4121   0.485   2.035   5.301
  115PEN    H18 4122   0.384   2.012   5.129
  115PEN    C19 4123   0.704   2.138   5.283
  115PEN    C20 4124   0.949   2.342   4.615
  115PEN    C21 4125   0.808   2.305   4.418
  115PEN    H22 4126   0.631   2.216   4.459
  115PEN    C23 4127   0.606   2.083   5.359
  115PEN    H24 4128   0.418   1.995   5.356
  115PEN    H25 4129   0.784   2.169   5.324
  115PEN    H26 4130   1.029   2.374   4.654
  115PEN    C27 4131   0.931   2.352   4.478
  115PEN    C28 4132   0.792   2.317   4.276
  115PEN    H29 4133   0.618   2.076   5.453
  115PEN    C30 4134   1.030   2.411   4.392
  115PEN    C31 4135   0.890   2.372   4.200
  115PEN    H32 4136   0.712   2.286   4.235
  115PEN    C33 4137   1.011   2.420   4.258
  115PEN    H34 4138   1.111   2.443   4.429
  115PEN    H35 4139   0.878   2.379   4.106
  115PEN    H36 4140   1.077   2.460   4.203
  116PEN     C1 4141   2.251   2.614   4.879
  116PEN     C2 4142   2.153   2.615   4.980
  116PEN     C3 4143   2.375   2.541   4.902
  116PEN     C4 4144   2.234   2.682   4.757
  116PEN     C5 4145   2.172   2.549   5.101
  116PEN     H6 4146   2.071   2.661   4.966
  116PEN     C7 4147   2.392   2.474   5.024
  116PEN     C8 4148   2.473   2.541   4.801
  116PEN     C9 4149   2.331   2.682   4.657
  116PEN    H10 4150   2.153   2.729   4.744
  116PEN    C11 4151   2.074   2.550   5.204
  116PEN    C12 4152   2.295   2.476   5.123
  116PEN    H13 4153   2.473   2.425   5.039
  116PEN    H14 4154   2.554   2.493   4.814
  116PEN    C15 4155   2.456   2.609   4.680
  116PEN    C16 4156   2.314   2.749   4.534
  116PEN    C17 4157   2.095   2.486   5.321
  116PEN    H18 4158   1.992   2.597   5.191
  116PEN    C19 4159   2.312   2.410   5.249
  116PEN    C20 4160   2.554   2.608   4.578
  116PEN    C21 4161   2.412   2.747   4.435
  116PEN    H22 4162   2.234   2.798   4.519
  116PEN    C23 4163   2.217   2.415   5.344
  116PEN    H24 4164   2.028   2.488   5.389
  116PEN    H25 4165   2.393   2.362   5.265
  116PEN    H26 4166   2.636   2.561   4.593
  116PEN    C27 4167   2.535   2.674   4.458
  116PEN    C28 4168   2.395   2.813   4.310
  116PEN    H29 4169   2.230   2.370   5.427
  116PEN    C30 4170   2.633   2.672   4.354
  116PEN    C31 4171   2.490   2.808   4.214
  116PEN    H32 4172   2.314   2.861   4.294
  116PEN    C33 4173   2.612   2.737   4.237
  116PEN    H34 4174   2.715   2.626   4.368
  116PEN    H35 4175   2.476   2.853   4.131
  116PEN    H36 4176   2.679   2.735   4.170
  117PEN     C1 4177   2.151   1.959   2.067
  117PEN     C2 4178   2.052   1.959   2.169
  117PEN     C3 4179   2.275   1.886   2.090
  117PEN     C4 4180   2.134   2.027   1.946
  117PEN     C5 4181   2.072   1.893   2.289
  117PEN     H6 4182   1.971   2.006   2.155
  117PEN     C7 4183   2.292   1.818   2.213
  117PEN     C8 4184   2.373   1.885   1.990
  117PEN     C9 4185   2.231   2.026   1.846
  117PEN    H10 4186   2.052   2.074   1.933
  117PEN    C11 4187   1.973   1.895   2.393
  117PEN    C12 4188   2.195   1.821   2.312
  117PEN    H13 4189   2.372   1.769   2.228
  117PEN    H14 4190   2.454   1.838   2.003
  117PEN    C15 4191   2.356   1.953   1.869
  117PEN    C16 4192   2.214   2.094   1.723
  117PEN    C17 4193   1.995   1.831   2.510
  117PEN    H18 4194   1.892   1.942   2.379
  117PEN    C19 4195   2.212   1.755   2.437
  117PEN    C20 4196   2.454   1.953   1.767
  117PEN    C21 4197   2.311   2.091   1.624
  117PEN    H22 4198   2.134   2.143   1.708
  117PEN    C23 4199   2.116   1.759   2.533
  117PEN    H24 4200   1.928   1.833   2.578
  117PEN    H25 4201   2.292   1.707   2.454
  117PEN    H26 4202   2.536   1.906   1.781
  117PEN    C27 4203   2.435   2.019   1.647
  117PEN    C28 4204   2.294   2.157   1.499
  117PEN    H29 4205   2.130   1.715   2.616
  117PEN    C30 4206   2.533   2.017   1.543
  117PEN    C31 4207   2.390   2.153   1.403
  117PEN    H32 4208   2.214   2.205   1.482
  117PEN    C33 4209   2.512   2.081   1.426
  117PEN    H34 4210   2.614   1.970   1.557
  117PEN    H35 4211   2.376   2.197   1.320
  117PEN    H36 4212   2.578   2.079   1.358
  118PEN     C1 4213   2.406   2.281   3.274
  118PEN     C2 4214   2.504   2.281   3.172
  118PEN     C3 4215   2.281   2.354   3.251
  118PEN     C4 4216   2.423   2.213   3.396
  118PEN     C5 4217   2.485   2.346   3.052
  118PEN     H6 4218   2.586   2.234   3.187
  118PEN     C7 4219   2.264   2.422   3.129
  118PEN     C8 4220   2.184   2.354   3.352
  118PEN     C9 4221   2.325   2.214   3.496
  118PEN    H10 4222   2.504   2.166   3.409
  118PEN    C11 4223   2.583   2.345   2.949
  118PEN    C12 4224   2.362   2.419   3.030
  118PEN    H13 4225   2.184   2.470   3.114
  118PEN    H14 4226   2.102   2.402   3.338
  118PEN    C15 4227   2.201   2.286   3.473
  118PEN    C16 4228   2.342   2.146   3.619
  118PEN    C17 4229   2.562   2.409   2.831
  118PEN    H18 4230   2.665   2.298   2.962
  118PEN    C19 4231   2.344   2.485   2.904
  118PEN    C20 4232   2.102   2.287   3.575
  118PEN    C21 4233   2.245   2.149   3.717
  118PEN    H22 4234   2.422   2.097   3.634
  118PEN    C23 4235   2.440   2.481   2.809
  118PEN    H24 4236   2.629   2.407   2.764
  118PEN    H25 4237   2.264   2.533   2.888
  118PEN    H26 4238   2.021   2.334   3.560
  118PEN    C27 4239   2.122   2.221   3.695
  118PEN    C28 4240   2.262   2.083   3.843
  118PEN    H29 4241   2.426   2.525   2.726
  118PEN    C30 4242   2.024   2.223   3.799
  118PEN    C31 4243   2.166   2.087   3.939
  118PEN    H32 4244   2.342   2.035   3.859
  118PEN    C33 4245   2.045   2.158   3.916
  118PEN    H34 4246   1.942   2.270   3.785
  118PEN    H35 4247   2.180   2.042   4.022
  118PEN    H36 4248   1.978   2.161   3.983
  119PEN     C1 4249   0.620   2.283   2.049
  119PEN     C2 4250   0.520   2.225   2.132
  119PEN     C3 4251   0.743   2.331   2.109
  119PEN     C4 4252   0.602   2.293   1.910
  119PEN     C5 4253   0.538   2.215   2.269
  119PEN     H6 4254   0.440   2.193   2.093
  119PEN     C7 4255   0.758   2.320   2.248
  119PEN     C8 4256   0.841   2.387   2.026
  119PEN     C9 4257   0.700   2.349   1.827
  119PEN    H10 4258   0.520   2.261   1.873
  119PEN    C11 4259   0.439   2.157   2.356
  119PEN    C12 4260   0.661   2.263   2.329
  119PEN    H13 4261   0.838   2.351   2.288
  119PEN    H14 4262   0.922   2.419   2.063
  119PEN    C15 4263   0.823   2.397   1.887
  119PEN    C16 4264   0.684   2.361   1.688
  119PEN    C17 4265   0.458   2.147   2.489
  119PEN    H18 4266   0.358   2.124   2.318
  119PEN    C19 4267   0.677   2.250   2.471
  119PEN    C20 4268   0.922   2.455   1.804
  119PEN    C21 4269   0.782   2.417   1.607
  119PEN    H22 4270   0.604   2.329   1.648
  119PEN    C23 4271   0.579   2.195   2.548
  119PEN    H24 4272   0.392   2.108   2.544
  119PEN    H25 4273   0.757   2.281   2.513
  119PEN    H26 4274   1.003   2.487   1.843
  119PEN    C27 4275   0.904   2.465   1.667
  119PEN    C28 4276   0.765   2.430   1.464
  119PEN    H29 4277   0.591   2.189   2.642
  119PEN    C30 4278   1.004   2.523   1.580
  119PEN    C31 4279   0.863   2.485   1.388
  119PEN    H32 4280   0.685   2.399   1.423
  119PEN    C33 4281   0.984   2.533   1.447
  119PEN    H34 4282   1.085   2.556   1.618
  119PEN    H35 4283   0.851   2.491   1.294
  119PEN    H36 4284   1.051   2.572   1.392
  120PEN     C1 4285   2.627   4.585   3.274
  120PEN     C2 4286   2.725   4.584   3.172
  120PEN     C3 4287   2.502   4.658   3.251
  120PEN     C4 4288   2.644   4.517   3.396
  120PEN     C5 4289   2.705   4.650   3.052
  120PEN     H6 4290   2.806   4.537   3.187
  120PEN     C7 4291   2.485   4.725   3.129
  120PEN     C8 4292   2.405   4.658   3.352
  120PEN     C9 4293   2.546   4.517   3.496
  120PEN    H10 4294   2.725   4.469   3.409
  120PEN    C11 4295   2.804   4.648   2.949
  120PEN    C12 4296   2.582   4.723   3.030
  120PEN    H13 4297   2.405   4.774   3.114
  120PEN    H14 4298   2.323   4.705   3.338
  120PEN    C15 4299   2.422   4.590   3.473
  120PEN    C16 4300   2.563   4.449   3.619
  120PEN    C17 4301   2.783   4.713   2.831
  120PEN    H18 4302   2.885   4.601   2.962
  120PEN    C19 4303   2.565   4.788   2.904
  120PEN    C20 4304   2.323   4.591   3.575
  120PEN    C21 4305   2.466   4.452   3.717
  120PEN    H22 4306   2.643   4.401   3.634
  120PEN    C23 4307   2.661   4.784   2.809
  120PEN    H24 4308   2.849   4.710   2.764
  120PEN    H25 4309   2.485   4.837   2.888
  120PEN    H26 4310   2.242   4.637   3.560
  120PEN    C27 4311   2.343   4.525   3.695
  120PEN    C28 4312   2.483   4.386   3.843
  120PEN    H29 4313   2.647   4.829   2.726
  120PEN    C30 4314   2.244   4.526   3.799
  120PEN    C31 4315   2.387   4.391   3.939
  120PEN    H32 4316   2.563   4.338   3.859
  120PEN    C33 4317   2.266   4.462   3.916
  120PEN    H34 4318   2.163   4.573   3.785
  120PEN    H35 4319   2.401   4.346   4.022
  120PEN    H36 4320   2.199   4.464   3.983
  121PEN     C1 4321   0.873   2.725   3.293
  121PEN     C2 4322   0.972   2.782   3.210
  121PEN     C3 4323   0.750   2.676   3.233
  121PEN     C4 4324   0.891   2.715   3.432
  121PEN     C5 4325   0.954   2.792   3.072
  121PEN     H6 4326   1.053   2.814   3.249
  121PEN     C7 4327   0.734   2.688   3.093
  121PEN     C8 4328   0.652   2.621   3.316
  121PEN     C9 4329   0.793   2.659   3.515
  121PEN    H10 4330   0.972   2.747   3.469
  121PEN    C11 4331   1.054   2.851   2.986
  121PEN    C12 4332   0.832   2.745   3.012
  121PEN    H13 4333   0.654   2.656   3.053
  121PEN    H14 4334   0.570   2.589   3.278
  121PEN    C15 4335   0.670   2.610   3.454
  121PEN    C16 4336   0.808   2.647   3.654
  121PEN    C17 4337   1.034   2.861   2.852
  121PEN    H18 4338   1.135   2.883   3.023
  121PEN    C19 4339   0.815   2.757   2.870
  121PEN    C20 4340   0.570   2.553   3.538
  121PEN    C21 4341   0.711   2.591   3.735
  121PEN    H22 4342   0.889   2.679   3.694
  121PEN    C23 4343   0.913   2.812   2.794
  121PEN    H24 4344   1.101   2.900   2.797
  121PEN    H25 4345   0.735   2.727   2.829
  121PEN    H26 4346   0.490   2.521   3.499
  121PEN    C27 4347   0.588   2.543   3.675
  121PEN    C28 4348   0.727   2.578   3.877
  121PEN    H29 4349   0.901   2.819   2.700
  121PEN    C30 4350   0.489   2.484   3.761
  121PEN    C31 4351   0.629   2.523   3.953
  121PEN    H32 4352   0.807   2.609   3.918
  121PEN    C33 4353   0.509   2.475   3.895
  121PEN    H34 4354   0.408   2.452   3.724
  121PEN    H35 4355   0.641   2.517   4.047
  121PEN    H36 4356   0.442   2.436   3.950
  122PEN     C1 4357   0.569   1.955   0.643
  122PEN     C2 4358   0.470   1.898   0.726
  122PEN     C3 4359   0.692   2.004   0.703
  122PEN     C4 4360   0.551   1.965   0.504
  122PEN     C5 4361   0.488   1.888   0.864
  122PEN     H6 4362   0.390   1.866   0.687
  122PEN     C7 4363   0.708   1.992   0.843
  122PEN     C8 4364   0.791   2.059   0.620
  122PEN     C9 4365   0.650   2.021   0.421
  122PEN    H10 4366   0.470   1.933   0.467
  122PEN    C11 4367   0.388   1.829   0.950
  122PEN    C12 4368   0.611   1.935   0.924
  122PEN    H13 4369   0.788   2.024   0.883
  122PEN    H14 4370   0.872   2.091   0.658
  122PEN    C15 4371   0.773   2.070   0.482
  122PEN    C16 4372   0.634   2.033   0.282
  122PEN    C17 4373   0.408   1.819   1.083
  122PEN    H18 4374   0.308   1.797   0.912
  122PEN    C19 4375   0.627   1.923   1.066
  122PEN    C20 4376   0.872   2.127   0.398
  122PEN    C21 4377   0.732   2.089   0.201
  122PEN    H22 4378   0.554   2.001   0.242
  122PEN    C23 4379   0.529   1.868   1.142
  122PEN    H24 4380   0.341   1.780   1.138
  122PEN    H25 4381   0.707   1.953   1.107
  122PEN    H26 4382   0.952   2.159   0.437
  122PEN    C27 4383   0.854   2.137   0.261
  122PEN    C28 4384   0.715   2.102   0.059
  122PEN    H29 4385   0.541   1.861   1.236
  122PEN    C30 4386   0.954   2.196   0.175
  122PEN    C31 4387   0.813   2.157  -0.017
  122PEN    H32 4388   0.635   2.071   0.018
  122PEN    C33 4389   0.934   2.205   0.041
  122PEN    H34 4390   1.035   2.228   0.212
  122PEN    H35 4391   0.801   2.163  -0.111
  122PEN    H36 4392   1.001   2.244  -0.014
  123PEN     C1 4393   2.526   3.929   0.463
  123PEN     C2 4394   2.625   3.929   0.361
  123PEN     C3 4395   2.402   4.002   0.440
  123PEN     C4 4396   2.543   3.861   0.584
  123PEN     C5 4397   2.605   3.995   0.241
  123PEN     H6 4398   2.706   3.882   0.376
  123PEN     C7 4399   2.385   4.070   0.317
  123PEN     C8 4400   2.304   4.003   0.540
  123PEN     C9 4401   2.446   3.862   0.685
  123PEN    H10 4402   2.625   3.814   0.597
  123PEN    C11 4403   2.704   3.993   0.137
  123PEN    C12 4404   2.482   4.067   0.218
  123PEN    H13 4405   2.305   4.119   0.302
  123PEN    H14 4406   2.223   4.050   0.527
  123PEN    C15 4407   2.321   3.935   0.662
  123PEN    C16 4408   2.463   3.794   0.807
  123PEN    C17 4409   2.683   4.057   0.020
  123PEN    H18 4410   2.785   3.946   0.151
  123PEN    C19 4411   2.465   4.133   0.093
  123PEN    C20 4412   2.223   3.935   0.763
  123PEN    C21 4413   2.366   3.797   0.906
  123PEN    H22 4414   2.543   3.745   0.822
  123PEN    C23 4415   2.561   4.129  -0.003
  123PEN    H24 4416   2.749   4.055  -0.048
  123PEN    H25 4417   2.385   4.181   0.076
  123PEN    H26 4418   2.142   3.982   0.749
  123PEN    C27 4419   2.243   3.869   0.883
  123PEN    C28 4420   2.383   3.731   1.031
  123PEN    H29 4421   2.547   4.173  -0.086
  123PEN    C30 4422   2.144   3.871   0.987
  123PEN    C31 4423   2.287   3.735   1.127
  123PEN    H32 4424   2.463   3.683   1.048
  123PEN    C33 4425   2.165   3.807   1.104
  123PEN    H34 4426   2.063   3.918   0.974
  123PEN    H35 4427   2.301   3.691   1.210
  123PEN    H36 4428   2.099   3.809   1.172
  124PEN     C1 4429   0.923   3.053   4.699
  124PEN     C2 4430   1.022   3.110   4.615
  124PEN     C3 4431   0.800   3.004   4.638
  124PEN     C4 4432   0.941   3.043   4.837
  124PEN     C5 4433   1.004   3.120   4.478
  124PEN     H6 4434   1.103   3.142   4.654
  124PEN     C7 4435   0.784   3.016   4.499
  124PEN     C8 4436   0.702   2.948   4.721
  124PEN     C9 4437   0.843   2.987   4.920
  124PEN    H10 4438   1.022   3.074   4.875
  124PEN    C11 4439   1.104   3.179   4.392
  124PEN    C12 4440   0.882   3.072   4.418
  124PEN    H13 4441   0.704   2.984   4.459
  124PEN    H14 4442   0.621   2.916   4.684
  124PEN    C15 4443   0.720   2.938   4.860
  124PEN    C16 4444   0.859   2.975   5.060
  124PEN    C17 4445   1.084   3.188   4.258
  124PEN    H18 4446   1.185   3.211   4.429
  124PEN    C19 4447   0.866   3.085   4.276
  124PEN    C20 4448   0.621   2.881   4.943
  124PEN    C21 4449   0.761   2.918   5.141
  124PEN    H22 4450   0.939   3.007   5.100
  124PEN    C23 4451   0.963   3.140   4.200
  124PEN    H24 4452   1.151   3.227   4.203
  124PEN    H25 4453   0.786   3.054   4.235
  124PEN    H26 4454   0.540   2.849   4.904
  124PEN    C27 4455   0.638   2.871   5.081
  124PEN    C28 4456   0.777   2.906   5.283
  124PEN    H29 4457   0.951   3.147   4.106
  124PEN    C30 4458   0.539   2.812   5.167
  124PEN    C31 4459   0.679   2.851   5.359
  124PEN    H32 4460   0.857   2.936   5.324
  124PEN    C33 4461   0.559   2.802   5.301
  124PEN    H34 4462   0.458   2.780   5.129
  124PEN    H35 4463   0.692   2.844   5.453
  124PEN    H36 4464   0.492   2.763   5.356
  125PEN     C1 4465   2.727   5.240   6.086
  125PEN     C2 4466   2.825   5.240   5.984
  125PEN     C3 4467   2.602   5.313   6.063
  125PEN     C4 4468   2.744   5.172   6.207
  125PEN     C5 4469   2.806   5.305   5.864
  125PEN     H6 4470   2.907   5.193   5.998
  125PEN     C7 4471   2.585   5.381   5.940
  125PEN     C8 4472   2.505   5.313   6.163
  125PEN     C9 4473   2.646   5.173   6.307
  125PEN    H10 4474   2.825   5.125   6.220
  125PEN    C11 4475   2.904   5.304   5.760
  125PEN    C12 4476   2.683   5.378   5.841
  125PEN    H13 4477   2.505   5.429   5.925
  125PEN    H14 4478   2.424   5.361   6.150
  125PEN    C15 4479   2.522   5.245   6.284
  125PEN    C16 4480   2.663   5.105   6.430
  125PEN    C17 4481   2.883   5.368   5.643
  125PEN    H18 4482   2.986   5.257   5.774
  125PEN    C19 4483   2.665   5.444   5.716
  125PEN    C20 4484   2.424   5.246   6.386
  125PEN    C21 4485   2.566   5.108   6.529
  125PEN    H22 4486   2.744   5.056   6.445
  125PEN    C23 4487   2.761   5.440   5.620
  125PEN    H24 4488   2.950   5.366   5.575
  125PEN    H25 4489   2.585   5.492   5.699
  125PEN    H26 4490   2.342   5.293   6.372
  125PEN    C27 4491   2.443   5.180   6.506
  125PEN    C28 4492   2.583   5.042   6.654
  125PEN    H29 4493   2.747   5.484   5.537
  125PEN    C30 4494   2.345   5.182   6.610
  125PEN    C31 4495   2.488   5.046   6.750
  125PEN    H32 4496   2.664   4.993   6.671
  125PEN    C33 4497   2.366   5.117   6.727
  125PEN    H34 4498   2.263   5.229   6.596
  125PEN    H35 4499   2.501   5.001   6.833
  125PEN    H36 4500   2.299   5.120   6.795
  126PEN     C1 4501   0.973   3.380   6.104
  126PEN     C2 4502   1.072   3.438   6.021
  126PEN     C3 4503   0.850   3.332   6.044
  126PEN     C4 4504   0.991   3.370   6.243
  126PEN     C5 4505   1.055   3.448   5.884
  126PEN     H6 4506   1.153   3.470   6.060
  126PEN     C7 4507   0.834   3.344   5.905
  126PEN     C8 4508   0.752   3.276   6.127
  126PEN     C9 4509   0.893   3.314   6.326
  126PEN    H10 4510   1.072   3.402   6.280
  126PEN    C11 4511   1.154   3.506   5.797
  126PEN    C12 4512   0.932   3.400   5.824
  126PEN    H13 4513   0.754   3.312   5.865
  126PEN    H14 4514   0.671   3.244   6.090
  126PEN    C15 4515   0.770   3.266   6.266
  126PEN    C16 4516   0.909   3.303   6.465
  126PEN    C17 4517   1.134   3.516   5.664
  126PEN    H18 4518   1.235   3.539   5.835
  126PEN    C19 4519   0.916   3.413   5.681
  126PEN    C20 4520   0.671   3.209   6.349
  126PEN    C21 4521   0.811   3.246   6.546
  126PEN    H22 4522   0.989   3.334   6.505
  126PEN    C23 4523   1.014   3.468   5.605
  126PEN    H24 4524   1.201   3.555   5.609
  126PEN    H25 4525   0.836   3.382   5.640
  126PEN    H26 4526   0.590   3.176   6.310
  126PEN    C27 4527   0.689   3.198   6.486
  126PEN    C28 4528   0.827   3.234   6.689
  126PEN    H29 4529   1.001   3.474   5.511
  126PEN    C30 4530   0.589   3.140   6.573
  126PEN    C31 4531   0.730   3.178   6.765
  126PEN    H32 4532   0.907   3.264   6.730
  126PEN    C33 4533   0.609   3.130   6.706
  126PEN    H34 4534   0.508   3.107   6.535
  126PEN    H35 4535   0.742   3.172   6.859
  126PEN    H36 4536   0.542   3.091   6.761
  127PEN     C1 4537   2.224   2.727   2.067
  127PEN     C2 4538   2.126   2.727   2.169
  127PEN     C3 4539   2.349   2.654   2.090
  127PEN     C4 4540   2.207   2.795   1.946
  127PEN     C5 4541   2.145   2.661   2.289
  127PEN     H6 4542   2.044   2.774   2.155
  127PEN     C7 4543   2.366   2.586   2.213
  127PEN     C8 4544   2.446   2.653   1.990
  127PEN     C9 4545   2.305   2.794   1.846
  127PEN    H10 4546   2.126   2.842   1.933
  127PEN    C11 4547   2.047   2.663   2.393
  127PEN    C12 4548   2.269   2.589   2.312
  127PEN    H13 4549   2.446   2.537   2.228
  127PEN    H14 4550   2.528   2.606   2.003
  127PEN    C15 4551   2.429   2.721   1.869
  127PEN    C16 4552   2.288   2.862   1.723
  127PEN    C17 4553   2.068   2.599   2.510
  127PEN    H18 4554   1.966   2.710   2.379
  127PEN    C19 4555   2.286   2.523   2.437
  127PEN    C20 4556   2.528   2.721   1.767
  127PEN    C21 4557   2.385   2.859   1.624
  127PEN    H22 4558   2.208   2.911   1.708
  127PEN    C23 4559   2.190   2.527   2.533
  127PEN    H24 4560   2.002   2.601   2.578
  127PEN    H25 4561   2.366   2.475   2.454
  127PEN    H26 4562   2.609   2.674   1.781
  127PEN    C27 4563   2.508   2.787   1.647
  127PEN    C28 4564   2.368   2.925   1.499
  127PEN    H29 4565   2.204   2.483   2.616
  127PEN    C30 4566   2.607   2.785   1.543
  127PEN    C31 4567   2.464   2.921   1.403
  127PEN    H32 4568   2.288   2.973   1.482
  127PEN    C33 4569   2.585   2.849   1.426
  127PEN    H34 4570   2.688   2.738   1.557
  127PEN    H35 4571   2.450   2.965   1.320
  127PEN    H36 4572   2.652   2.847   1.358
  128PEN     C1 4573   2.479   3.049   3.274
  128PEN     C2 4574   2.578   3.048   3.172
  128PEN     C3 4575   2.355   3.122   3.251
  128PEN     C4 4576   2.496   2.981   3.396
  128PEN     C5 4577   2.558   3.114   3.052
  128PEN     H6 4578   2.659   3.002   3.187
  128PEN     C7 4579   2.338   3.190   3.129
  128PEN     C8 4580   2.257   3.122   3.352
  128PEN     C9 4581   2.399   2.981   3.496
  128PEN    H10 4582   2.578   2.934   3.409
  128PEN    C11 4583   2.657   3.113   2.949
  128PEN    C12 4584   2.435   3.187   3.030
  128PEN    H13 4585   2.258   3.238   3.114
  128PEN    H14 4586   2.176   3.170   3.338
  128PEN    C15 4587   2.274   3.054   3.473
  128PEN    C16 4588   2.416   2.914   3.619
  128PEN    C17 4589   2.636   3.177   2.831
  128PEN    H18 4590   2.738   3.066   2.962
  128PEN    C19 4591   2.418   3.253   2.904
  128PEN    C20 4592   2.176   3.055   3.575
  128PEN    C21 4593   2.319   2.916   3.717
  128PEN    H22 4594   2.496   2.865   3.634
  128PEN    C23 4595   2.514   3.248   2.809
  128PEN    H24 4596   2.702   3.175   2.764
  128PEN    H25 4597   2.338   3.301   2.888
  128PEN    H26 4598   2.095   3.102   3.560
  128PEN    C27 4599   2.196   2.989   3.695
  128PEN    C28 4600   2.336   2.850   3.843
  128PEN    H29 4601   2.500   3.293   2.726
  128PEN    C30 4602   2.097   2.991   3.799
  128PEN    C31 4603   2.240   2.855   3.939
  128PEN    H32 4604   2.416   2.802   3.859
  128PEN    C33 4605   2.118   2.926   3.916
  128PEN    H34 4606   2.016   3.037   3.785
  128PEN    H35 4607   2.254   2.810   4.022
  128PEN    H36 4608   2.052   2.929   3.983
  129PEN     C1 4609   2.325   3.382   4.879
  129PEN     C2 4610   2.226   3.383   4.980
  129PEN     C3 4611   2.449   3.309   4.902
  129PEN     C4 4612   2.308   3.450   4.757
  129PEN     C5 4613   2.246   3.317   5.101
  129PEN     H6 4614   2.145   3.429   4.966
  129PEN     C7 4615   2.466   3.241   5.024
  129PEN     C8 4616   2.547   3.309   4.801
  129PEN     C9 4617   2.405   3.450   4.657
  129PEN    H10 4618   2.226   3.497   4.744
  129PEN    C11 4619   2.147   3.318   5.204
  129PEN    C12 4620   2.369   3.244   5.123
  129PEN    H13 4621   2.546   3.193   5.039
  129PEN    H14 4622   2.628   3.261   4.814
  129PEN    C15 4623   2.530   3.377   4.680
  129PEN    C16 4624   2.388   3.517   4.534
  129PEN    C17 4625   2.168   3.254   5.321
  129PEN    H18 4626   2.066   3.365   5.191
  129PEN    C19 4627   2.386   3.178   5.249
  129PEN    C20 4628   2.628   3.376   4.578
  129PEN    C21 4629   2.485   3.514   4.435
  129PEN    H22 4630   2.308   3.566   4.519
  129PEN    C23 4631   2.290   3.182   5.344
  129PEN    H24 4632   2.102   3.256   5.389
  129PEN    H25 4633   2.466   3.130   5.265
  129PEN    H26 4634   2.709   3.329   4.593
  129PEN    C27 4635   2.608   3.442   4.458
  129PEN    C28 4636   2.468   3.580   4.310
  129PEN    H29 4637   2.304   3.138   5.427
  129PEN    C30 4638   2.707   3.440   4.354
  129PEN    C31 4639   2.564   3.576   4.214
  129PEN    H32 4640   2.388   3.629   4.294
  129PEN    C33 4641   2.686   3.505   4.237
  129PEN    H34 4642   2.788   3.393   4.368
  129PEN    H35 4643   2.550   3.621   4.131
  129PEN    H36 4644   2.752   3.502   4.170
  130PEN     C1 4645   0.693   3.051   2.049
  130PEN     C2 4646   0.594   2.993   2.132
  130PEN     C3 4647   0.816   3.099   2.109
  130PEN     C4 4648   0.675   3.061   1.910
  130PEN     C5 4649   0.612   2.983   2.269
  130PEN     H6 4650   0.513   2.961   2.093
  130PEN     C7 4651   0.832   3.087   2.248
  130PEN     C8 4652   0.914   3.155   2.026
  130PEN     C9 4653   0.773   3.116   1.827
  130PEN    H10 4654   0.594   3.029   1.873
  130PEN    C11 4655   0.512   2.925   2.356
  130PEN    C12 4656   0.734   3.031   2.329
  130PEN    H13 4657   0.912   3.119   2.288
  130PEN    H14 4658   0.996   3.187   2.063
  130PEN    C15 4659   0.896   3.165   1.887
  130PEN    C16 4660   0.758   3.128   1.688
  130PEN    C17 4661   0.532   2.915   2.489
  130PEN    H18 4662   0.431   2.892   2.318
  130PEN    C19 4663   0.751   3.018   2.471
  130PEN    C20 4664   0.996   3.222   1.804
  130PEN    C21 4665   0.855   3.185   1.607
  130PEN    H22 4666   0.678   3.097   1.648
  130PEN    C23 4667   0.653   2.963   2.548
  130PEN    H24 4668   0.465   2.876   2.544
  130PEN    H25 4669   0.831   3.049   2.513
  130PEN    H26 4670   1.076   3.255   1.843
  130PEN    C27 4671   0.978   3.232   1.667
  130PEN    C28 4672   0.839   3.197   1.464
  130PEN    H29 4673   0.665   2.957   2.642
  130PEN    C30 4674   1.077   3.291   1.580
  130PEN    C31 4675   0.937   3.253   1.388
  130PEN    H32 4676   0.759   3.167   1.423
  130PEN    C33 4677   1.058   3.301   1.447
  130PEN    H34 4678   1.158   3.323   1.618
  130PEN    H35 4679   0.925   3.259   1.294
  130PEN    H36 4680   1.124   3.340   1.392
  131PEN     C1 4681   0.947   3.493   3.293
  131PEN     C2 4682   1.046   3.550   3.210
  131PEN     C3 4683   0.823   3.444   3.233
  131PEN     C4 4684   0.964   3.483   3.432
  131PEN     C5 4685   1.028   3.560   3.072
  131PEN     H6 4686   1.126   3.582   3.249
  131PEN     C7 4687   0.808   3.456   3.093
  131PEN     C8 4688   0.725   3.388   3.316
  131PEN     C9 4689   0.866   3.427   3.515
  131PEN    H10 4690   1.046   3.514   3.469
  131PEN    C11 4691   1.127   3.619   2.986
  131PEN    C12 4692   0.905   3.513   3.012
  131PEN    H13 4693   0.728   3.424   3.053
  131PEN    H14 4694   0.644   3.357   3.278
  131PEN    C15 4695   0.743   3.378   3.454
  131PEN    C16 4696   0.882   3.415   3.654
  131PEN    C17 4697   1.108   3.628   2.852
  131PEN    H18 4698   1.208   3.651   3.023
  131PEN    C19 4699   0.889   3.525   2.870
  131PEN    C20 4700   0.644   3.321   3.538
  131PEN    C21 4701   0.784   3.359   3.735
  131PEN    H22 4702   0.962   3.447   3.694
  131PEN    C23 4703   0.987   3.580   2.794
  131PEN    H24 4704   1.175   3.668   2.797
  131PEN    H25 4705   0.809   3.494   2.829
  131PEN    H26 4706   0.564   3.289   3.499
  131PEN    C27 4707   0.662   3.311   3.675
  131PEN    C28 4708   0.801   3.346   3.877
  131PEN    H29 4709   0.975   3.587   2.700
  131PEN    C30 4710   0.562   3.252   3.761
  131PEN    C31 4711   0.703   3.291   3.953
  131PEN    H32 4712   0.881   3.377   3.918
  131PEN    C33 4713   0.582   3.243   3.895
  131PEN    H34 4714   0.481   3.220   3.724
  131PEN    H35 4715   0.715   3.284   4.047
  131PEN    H36 4716   0.515   3.203   3.950
  132PEN     C1 4717   1.047   4.148   6.104
  132PEN     C2 4718   1.146   4.205   6.021
  132PEN     C3 4719   0.924   4.099   6.044
  132PEN     C4 4720   1.065   4.138   6.243
  132PEN     C5 4721   1.128   4.216   5.884
  132PEN     H6 4722   1.227   4.238   6.060
  132PEN     C7 4723   0.908   4.111   5.905
  132PEN     C8 4724   0.826   4.044   6.127
  132PEN     C9 4725   0.967   4.082   6.326
  132PEN    H10 4726   1.146   4.170   6.280
  132PEN    C11 4727   1.228   4.274   5.797
  132PEN    C12 4728   1.006   4.168   5.824
  132PEN    H13 4729   0.828   4.080   5.865
  132PEN    H14 4730   0.744   4.012   6.090
  132PEN    C15 4731   0.844   4.034   6.266
  132PEN    C16 4732   0.982   4.070   6.465
  132PEN    C17 4733   1.208   4.284   5.664
  132PEN    H18 4734   1.309   4.307   5.835
  132PEN    C19 4735   0.989   4.180   5.681
  132PEN    C20 4736   0.744   3.976   6.349
  132PEN    C21 4737   0.885   4.014   6.546
  132PEN    H22 4738   1.062   4.102   6.505
  132PEN    C23 4739   1.087   4.236   5.605
  132PEN    H24 4740   1.275   4.323   5.609
  132PEN    H25 4741   0.909   4.150   5.640
  132PEN    H26 4742   0.664   3.944   6.310
  132PEN    C27 4743   0.762   3.966   6.486
  132PEN    C28 4744   0.901   4.001   6.689
  132PEN    H29 4745   1.075   4.242   5.511
  132PEN    C30 4746   0.663   3.908   6.573
  132PEN    C31 4747   0.803   3.946   6.765
  132PEN    H32 4748   0.981   4.032   6.730
  132PEN    C33 4749   0.682   3.898   6.706
  132PEN    H34 4750   0.582   3.875   6.535
  132PEN    H35 4751   0.815   3.940   6.859
  132PEN    H36 4752   0.616   3.859   6.761
  133PEN     C1 4753   0.997   3.821   4.699
  133PEN     C2 4754   1.096   3.878   4.615
  133PEN     C3 4755   0.874   3.772   4.638
  133PEN     C4 4756   1.015   3.810   4.837
  133PEN     C5 4757   1.078   3.888   4.478
  133PEN     H6 4758   1.176   3.910   4.654
  133PEN     C7 4759   0.858   3.784   4.499
  133PEN     C8 4760   0.775   3.716   4.721
  133PEN     C9 4761   0.916   3.755   4.920
  133PEN    H10 4762   1.096   3.842   4.875
  133PEN    C11 4763   1.178   3.946   4.392
  133PEN    C12 4764   0.956   3.840   4.418
  133PEN    H13 4765   0.778   3.752   4.459
  133PEN    H14 4766   0.694   3.684   4.684
  133PEN    C15 4767   0.793   3.706   4.860
  133PEN    C16 4768   0.932   3.743   5.060
  133PEN    C17 4769   1.158   3.956   4.258
  133PEN    H18 4770   1.259   3.979   4.429
  133PEN    C19 4771   0.939   3.853   4.276
  133PEN    C20 4772   0.694   3.649   4.943
  133PEN    C21 4773   0.835   3.686   5.141
  133PEN    H22 4774   1.012   3.774   5.100
  133PEN    C23 4775   1.037   3.908   4.200
  133PEN    H24 4776   1.225   3.995   4.203
  133PEN    H25 4777   0.859   3.822   4.235
  133PEN    H26 4778   0.614   3.617   4.904
  133PEN    C27 4779   0.712   3.639   5.081
  133PEN    C28 4780   0.851   3.674   5.283
  133PEN    H29 4781   1.025   3.914   4.106
  133PEN    C30 4782   0.612   3.580   5.167
  133PEN    C31 4783   0.753   3.619   5.359
  133PEN    H32 4784   0.931   3.704   5.324
  133PEN    C33 4785   0.632   3.570   5.301
  133PEN    H34 4786   0.532   3.548   5.129
  133PEN    H35 4787   0.765   3.612   5.453
  133PEN    H36 4788   0.565   3.531   5.356
  134PEN     C1 4789   2.298   3.495   2.067
  134PEN     C2 4790   2.200   3.495   2.169
  134PEN     C3 4791   2.422   3.422   2.090
  134PEN     C4 4792   2.281   3.563   1.946
  134PEN     C5 4793   2.219   3.429   2.289
  134PEN     H6 4794   2.118   3.542   2.155
  134PEN     C7 4795   2.439   3.354   2.213
  134PEN     C8 4796   2.520   3.421   1.990
  134PEN     C9 4797   2.378   3.562   1.846
  134PEN    H10 4798   2.200   3.610   1.933
  134PEN    C11 4799   2.121   3.431   2.393
  134PEN    C12 4800   2.342   3.357   2.312
  134PEN    H13 4801   2.520   3.305   2.228
  134PEN    H14 4802   2.601   3.374   2.003
  134PEN    C15 4803   2.503   3.489   1.869
  134PEN    C16 4804   2.361   3.630   1.723
  134PEN    C17 4805   2.142   3.366   2.510
  134PEN    H18 4806   2.039   3.478   2.379
  134PEN    C19 4807   2.359   3.291   2.437
  134PEN    C20 4808   2.601   3.489   1.767
  134PEN    C21 4809   2.459   3.627   1.624
  134PEN    H22 4810   2.281   3.678   1.708
  134PEN    C23 4811   2.264   3.295   2.533
  134PEN    H24 4812   2.075   3.369   2.578
  134PEN    H25 4813   2.440   3.243   2.454
  134PEN    H26 4814   2.683   3.442   1.781
  134PEN    C27 4815   2.582   3.555   1.647
  134PEN    C28 4816   2.442   3.693   1.499
  134PEN    H29 4817   2.277   3.250   2.616
  134PEN    C30 4818   2.680   3.553   1.543
  134PEN    C31 4819   2.537   3.689   1.403
  134PEN    H32 4820   2.361   3.741   1.482
  134PEN    C33 4821   2.659   3.617   1.426
  134PEN    H34 4822   2.762   3.506   1.557
  134PEN    H35 4823   2.523   3.733   1.320
  134PEN    H36 4824   2.726   3.615   1.358
  135PEN     C1 4825   2.453   3.161   0.463
  135PEN     C2 4826   2.551   3.161   0.361
  135PEN     C3 4827   2.328   3.234   0.440
  135PEN     C4 4828   2.470   3.093   0.584
  135PEN     C5 4829   2.532   3.227   0.241
  135PEN     H6 4830   2.633   3.114   0.376
  135PEN     C7 4831   2.311   3.302   0.317
  135PEN     C8 4832   2.231   3.235   0.540
  135PEN     C9 4833   2.372   3.094   0.685
  135PEN    H10 4834   2.551   3.046   0.597
  135PEN    C11 4835   2.630   3.225   0.137
  135PEN    C12 4836   2.409   3.299   0.218
  135PEN    H13 4837   2.231   3.351   0.302
  135PEN    H14 4838   2.149   3.282   0.527
  135PEN    C15 4839   2.248   3.167   0.662
  135PEN    C16 4840   2.389   3.026   0.807
  135PEN    C17 4841   2.609   3.290   0.020
  135PEN    H18 4842   2.712   3.178   0.151
  135PEN    C19 4843   2.391   3.365   0.093
  135PEN    C20 4844   2.149   3.167   0.763
  135PEN    C21 4845   2.292   3.029   0.906
  135PEN    H22 4846   2.469   2.977   0.822
  135PEN    C23 4847   2.487   3.361  -0.003
  135PEN    H24 4848   2.676   3.287  -0.048
  135PEN    H25 4849   2.311   3.413   0.076
  135PEN    H26 4850   2.068   3.214   0.749
  135PEN    C27 4851   2.169   3.101   0.883
  135PEN    C28 4852   2.309   2.963   1.031
  135PEN    H29 4853   2.473   3.405  -0.086
  135PEN    C30 4854   2.071   3.103   0.987
  135PEN    C31 4855   2.213   2.967   1.127
  135PEN    H32 4856   2.389   2.915   1.048
  135PEN    C33 4857   2.092   3.039   1.104
  135PEN    H34 4858   1.989   3.150   0.974
  135PEN    H35 4859   2.227   2.923   1.210
  135PEN    H36 4860   2.025   3.041   1.172
  136PEN     C1 4861   2.398   4.150   4.879
  136PEN     C2 4862   2.300   4.150   4.980
  136PEN     C3 4863   2.523   4.077   4.902
  136PEN     C4 4864   2.381   4.218   4.757
  136PEN     C5 4865   2.319   4.084   5.101
  136PEN     H6 4866   2.218   4.197   4.966
  136PEN     C7 4867   2.540   4.009   5.024
  136PEN     C8 4868   2.620   4.076   4.801
  136PEN     C9 4869   2.479   4.217   4.657
  136PEN    H10 4870   2.300   4.265   4.744
  136PEN    C11 4871   2.221   4.086   5.204
  136PEN    C12 4872   2.442   4.012   5.123
  136PEN    H13 4873   2.620   3.961   5.039
  136PEN    H14 4874   2.702   4.029   4.814
  136PEN    C15 4875   2.603   4.144   4.680
  136PEN    C16 4876   2.462   4.285   4.534
  136PEN    C17 4877   2.242   4.022   5.321
  136PEN    H18 4878   2.139   4.133   5.191
  136PEN    C19 4879   2.460   3.946   5.249
  136PEN    C20 4880   2.702   4.144   4.578
  136PEN    C21 4881   2.559   4.282   4.435
  136PEN    H22 4882   2.382   4.334   4.519
  136PEN    C23 4883   2.364   3.950   5.344
  136PEN    H24 4884   2.175   4.024   5.389
  136PEN    H25 4885   2.540   3.898   5.265
  136PEN    H26 4886   2.783   4.097   4.593
  136PEN    C27 4887   2.682   4.210   4.458
  136PEN    C28 4888   2.542   4.348   4.310
  136PEN    H29 4889   2.378   3.906   5.427
  136PEN    C30 4890   2.780   4.208   4.354
  136PEN    C31 4891   2.638   4.344   4.214
  136PEN    H32 4892   2.461   4.396   4.294
  136PEN    C33 4893   2.759   4.273   4.237
  136PEN    H34 4894   2.862   4.161   4.368
  136PEN    H35 4895   2.624   4.389   4.131
  136PEN    H36 4896   2.826   4.270   4.170
  137PEN     C1 4897   0.767   3.818   2.049
  137PEN     C2 4898   0.668   3.761   2.132
  137PEN     C3 4899   0.890   3.867   2.109
  137PEN     C4 4900   0.749   3.829   1.910
  137PEN     C5 4901   0.685   3.751   2.269
  137PEN     H6 4902   0.587   3.729   2.093
  137PEN     C7 4903   0.905   3.855   2.248
  137PEN     C8 4904   0.988   3.923   2.026
  137PEN     C9 4905   0.847   3.884   1.827
  137PEN    H10 4906   0.667   3.797   1.873
  137PEN    C11 4907   0.586   3.693   2.356
  137PEN    C12 4908   0.808   3.799   2.329
  137PEN    H13 4909   0.986   3.887   2.288
  137PEN    H14 4910   1.069   3.955   2.063
  137PEN    C15 4911   0.970   3.933   1.887
  137PEN    C16 4912   0.831   3.896   1.688
  137PEN    C17 4913   0.606   3.683   2.489
  137PEN    H18 4914   0.505   3.660   2.318
  137PEN    C19 4915   0.824   3.786   2.471
  137PEN    C20 4916   1.069   3.990   1.804
  137PEN    C21 4917   0.929   3.953   1.607
  137PEN    H22 4918   0.751   3.864   1.648
  137PEN    C23 4919   0.726   3.731   2.548
  137PEN    H24 4920   0.539   3.644   2.544
  137PEN    H25 4921   0.904   3.817   2.513
  137PEN    H26 4922   1.150   4.022   1.843
  137PEN    C27 4923   1.051   4.000   1.667
  137PEN    C28 4924   0.913   3.965   1.464
  137PEN    H29 4925   0.738   3.725   2.642
  137PEN    C30 4926   1.151   4.059   1.580
  137PEN    C31 4927   1.010   4.020   1.388
  137PEN    H32 4928   0.833   3.935   1.423
  137PEN    C33 4929   1.131   4.069   1.447
  137PEN    H34 4930   1.232   4.091   1.618
  137PEN    H35 4931   0.998   4.027   1.294
  137PEN    H36 4932   1.198   4.108   1.392
  138PEN     C1 4933   1.120   4.916   6.104
  138PEN     C2 4934   1.220   4.973   6.021
  138PEN     C3 4935   0.997   4.867   6.044
  138PEN     C4 4936   1.138   4.906   6.243
  138PEN     C5 4937   1.202   4.983   5.884
  138PEN     H6 4938   1.300   5.005   6.060
  138PEN     C7 4939   0.982   4.879   5.905
  138PEN     C8 4940   0.899   4.812   6.127
  138PEN     C9 4941   1.040   4.850   6.326
  138PEN    H10 4942   1.220   4.938   6.280
  138PEN    C11 4943   1.301   5.042   5.797
  138PEN    C12 4944   1.079   4.936   5.824
  138PEN    H13 4945   0.902   4.848   5.865
  138PEN    H14 4946   0.818   4.780   6.090
  138PEN    C15 4947   0.917   4.801   6.266
  138PEN    C16 4948   1.056   4.838   6.465
  138PEN    C17 4949   1.282   5.052   5.664
  138PEN    H18 4950   1.382   5.074   5.835
  138PEN    C19 4951   1.063   4.948   5.681
  138PEN    C20 4952   0.818   4.744   6.349
  138PEN    C21 4953   0.958   4.782   6.546
  138PEN    H22 4954   1.136   4.870   6.505
  138PEN    C23 4955   1.161   5.003   5.605
  138PEN    H24 4956   1.348   5.091   5.609
  138PEN    H25 4957   0.983   4.918   5.640
  138PEN    H26 4958   0.737   4.712   6.310
  138PEN    C27 4959   0.836   4.734   6.486
  138PEN    C28 4960   0.975   4.769   6.689
  138PEN    H29 4961   1.149   5.010   5.511
  138PEN    C30 4962   0.736   4.676   6.573
  138PEN    C31 4963   0.877   4.714   6.765
  138PEN    H32 4964   1.055   4.800   6.730
  138PEN    C33 4965   0.756   4.666   6.706
  138PEN    H34 4966   0.655   4.643   6.535
  138PEN    H35 4967   0.889   4.708   6.859
  138PEN    H36 4968   0.689   4.627   6.761
  139PEN     C1 4969   0.817   4.146   3.454
  139PEN     C2 4970   0.718   4.089   3.538
  139PEN     C3 4971   0.940   4.195   3.515
  139PEN     C4 4972   0.799   4.156   3.316
  139PEN     C5 4973   0.736   4.079   3.675
  139PEN     H6 4974   0.637   4.057   3.499
  139PEN     C7 4975   0.956   4.183   3.654
  139PEN     C8 4976   1.038   4.251   3.432
  139PEN     C9 4977   0.897   4.212   3.233
  139PEN    H10 4978   0.718   4.125   3.278
  139PEN    C11 4979   0.636   4.020   3.761
  139PEN    C12 4980   0.858   4.126   3.735
  139PEN    H13 4981   1.036   4.215   3.694
  139PEN    H14 4982   1.119   4.282   3.469
  139PEN    C15 4983   1.020   4.261   3.293
  139PEN    C16 4984   0.881   4.224   3.093
  139PEN    C17 4985   0.656   4.010   3.895
  139PEN    H18 4986   0.555   3.988   3.724
  139PEN    C19 4987   0.874   4.114   3.877
  139PEN    C20 4988   1.119   4.318   3.210
  139PEN    C21 4989   0.979   4.280   3.012
  139PEN    H22 4990   0.801   4.192   3.053
  139PEN    C23 4991   0.777   4.059   3.953
  139PEN    H24 4992   0.589   3.971   3.950
  139PEN    H25 4993   0.954   4.144   3.918
  139PEN    H26 4994   1.200   4.350   3.249
  139PEN    C27 4995   1.101   4.328   3.072
  139PEN    C28 4996   0.963   4.293   2.870
  139PEN    H29 4997   0.789   4.052   4.047
  139PEN    C30 4998   1.201   4.387   2.986
  139PEN    C31 4999   1.061   4.348   2.794
  139PEN    H32 5000   0.883   4.262   2.829
  139PEN    C33 5001   1.181   4.396   2.852
  139PEN    H34 5002   1.282   4.419   3.023
  139PEN    H35 5003   1.048   4.355   2.700
  139PEN    H36 5004   1.248   4.436   2.797
  140PEN     C1 5005   0.867   4.474   4.860
  140PEN     C2 5006   0.768   4.417   4.943
  140PEN     C3 5007   0.990   4.523   4.920
  140PEN     C4 5008   0.849   4.484   4.721
  140PEN     C5 5009   0.786   4.406   5.081
  140PEN     H6 5010   0.687   4.384   4.904
  140PEN     C7 5011   1.006   4.511   5.060
  140PEN     C8 5012   1.088   4.578   4.837
  140PEN     C9 5013   0.947   4.540   4.638
  140PEN    H10 5014   0.768   4.452   4.684
  140PEN    C11 5015   0.686   4.348   5.167
  140PEN    C12 5016   0.908   4.454   5.141
  140PEN    H13 5017   1.086   4.542   5.100
  140PEN    H14 5018   1.170   4.610   4.875
  140PEN    C15 5019   1.070   4.588   4.699
  140PEN    C16 5020   0.932   4.552   4.499
  140PEN    C17 5021   0.706   4.338   5.301
  140PEN    H18 5022   0.605   4.315   5.129
  140PEN    C19 5023   0.925   4.442   5.283
  140PEN    C20 5024   1.169   4.646   4.615
  140PEN    C21 5025   1.029   4.608   4.418
  140PEN    H22 5026   0.851   4.520   4.459
  140PEN    C23 5027   0.827   4.386   5.359
  140PEN    H24 5028   0.639   4.299   5.356
  140PEN    H25 5029   1.005   4.472   5.324
  140PEN    H26 5030   1.250   4.678   4.654
  140PEN    C27 5031   1.152   4.656   4.478
  140PEN    C28 5032   1.013   4.621   4.276
  140PEN    H29 5033   0.839   4.380   5.453
  140PEN    C30 5034   1.251   4.714   4.392
  140PEN    C31 5035   1.111   4.676   4.200
  140PEN    H32 5036   0.933   4.590   4.235
  140PEN    C33 5037   1.231   4.724   4.258
  140PEN    H34 5038   1.332   4.747   4.429
  140PEN    H35 5039   1.099   4.682   4.106
  140PEN    H36 5040   1.298   4.763   4.203
  141PEN     C1 5041   0.625   0.534   0.482
  141PEN     C2 5042   0.725   0.591   0.398
  141PEN     C3 5043   0.502   0.485   0.421
  141PEN     C4 5044   0.643   0.524   0.620
  141PEN     C5 5045   0.707   0.601   0.261
  141PEN     H6 5046   0.805   0.623   0.437
  141PEN     C7 5047   0.487   0.497   0.282
  141PEN     C8 5048   0.404   0.429   0.504
  141PEN     C9 5049   0.545   0.468   0.703
  141PEN    H10 5050   0.725   0.555   0.658
  141PEN    C11 5051   0.806   0.660   0.175
  141PEN    C12 5052   0.584   0.554   0.201
  141PEN    H13 5053   0.407   0.465   0.242
  141PEN    H14 5054   0.323   0.398   0.467
  141PEN    C15 5055   0.422   0.419   0.643
  141PEN    C16 5056   0.561   0.456   0.843
  141PEN    C17 5057   0.787   0.670   0.041
  141PEN    H18 5058   0.887   0.692   0.212
  141PEN    C19 5059   0.568   0.566   0.059
  141PEN    C20 5060   0.323   0.362   0.726
  141PEN    C21 5061   0.463   0.400   0.924
  141PEN    H22 5062   0.641   0.488   0.883
  141PEN    C23 5063   0.666   0.621  -0.017
  141PEN    H24 5064   0.853   0.709  -0.014
  141PEN    H25 5065   0.488   0.536   0.018
  141PEN    H26 5066   0.242   0.330   0.687
  141PEN    C27 5067   0.341   0.352   0.864
  141PEN    C28 5068   0.480   0.387   1.066
  141PEN    H29 5069   0.654   0.628  -0.111
  141PEN    C30 5070   0.241   0.293   0.950
  141PEN    C31 5071   0.382   0.332   1.142
  141PEN    H32 5072   0.560   0.418   1.107
  141PEN    C33 5073   0.261   0.284   1.083
  141PEN    H34 5074   0.160   0.261   0.912
  141PEN    H35 5075   0.394   0.325   1.236
  141PEN    H36 5076   0.194   0.245   1.138
  142PEN     C1 5077   0.699   1.302   0.482
  142PEN     C2 5078   0.798   1.359   0.398
  142PEN     C3 5079   0.576   1.253   0.421
  142PEN     C4 5080   0.717   1.292   0.620
  142PEN     C5 5081   0.780   1.369   0.261
  142PEN     H6 5082   0.879   1.391   0.437
  142PEN     C7 5083   0.560   1.265   0.282
  142PEN     C8 5084   0.478   1.197   0.504
  142PEN     C9 5085   0.619   1.236   0.703
  142PEN    H10 5086   0.798   1.323   0.658
  142PEN    C11 5087   0.880   1.428   0.175
  142PEN    C12 5088   0.658   1.322   0.201
  142PEN    H13 5089   0.480   1.233   0.242
  142PEN    H14 5090   0.397   1.166   0.467
  142PEN    C15 5091   0.496   1.187   0.643
  142PEN    C16 5092   0.635   1.224   0.843
  142PEN    C17 5093   0.860   1.437   0.041
  142PEN    H18 5094   0.961   1.460   0.212
  142PEN    C19 5095   0.642   1.334   0.059
  142PEN    C20 5096   0.397   1.130   0.726
  142PEN    C21 5097   0.537   1.167   0.924
  142PEN    H22 5098   0.715   1.256   0.883
  142PEN    C23 5099   0.739   1.389  -0.017
  142PEN    H24 5100   0.927   1.477  -0.014
  142PEN    H25 5101   0.562   1.303   0.018
  142PEN    H26 5102   0.316   1.098   0.687
  142PEN    C27 5103   0.414   1.120   0.864
  142PEN    C28 5104   0.553   1.155   1.066
  142PEN    H29 5105   0.727   1.396  -0.111
  142PEN    C30 5106   0.315   1.061   0.950
  142PEN    C31 5107   0.455   1.100   1.142
  142PEN    H32 5108   0.633   1.186   1.107
  142PEN    C33 5109   0.335   1.052   1.083
  142PEN    H34 5110   0.234   1.029   0.912
  142PEN    H35 5111   0.468   1.093   1.236
  142PEN    H36 5112   0.268   1.012   1.138
  143PEN     C1 5113   2.506   2.936   6.086
  143PEN     C2 5114   2.604   2.936   5.984
  143PEN     C3 5115   2.382   3.009   6.063
  143PEN     C4 5116   2.523   2.868   6.207
  143PEN     C5 5117   2.585   3.002   5.864
  143PEN     H6 5118   2.686   2.889   5.998
  143PEN     C7 5119   2.365   3.077   5.940
  143PEN     C8 5120   2.284   3.010   6.163
  143PEN     C9 5121   2.426   2.869   6.307
  143PEN    H10 5122   2.604   2.821   6.220
  143PEN    C11 5123   2.683   3.000   5.760
  143PEN    C12 5124   2.462   3.074   5.841
  143PEN    H13 5125   2.284   3.126   5.925
  143PEN    H14 5126   2.203   3.057   6.150
  143PEN    C15 5127   2.301   2.942   6.284
  143PEN    C16 5128   2.443   2.801   6.430
  143PEN    C17 5129   2.662   3.065   5.643
  143PEN    H18 5130   2.765   2.953   5.774
  143PEN    C19 5131   2.445   3.140   5.716
  143PEN    C20 5132   2.203   2.942   6.386
  143PEN    C21 5133   2.345   2.804   6.529
  143PEN    H22 5134   2.523   2.753   6.445
  143PEN    C23 5135   2.540   3.136   5.620
  143PEN    H24 5136   2.729   3.062   5.575
  143PEN    H25 5137   2.364   3.188   5.699
  143PEN    H26 5138   2.121   2.989   6.372
  143PEN    C27 5139   2.222   2.876   6.506
  143PEN    C28 5140   2.362   2.738   6.654
  143PEN    H29 5141   2.527   3.180   5.537
  143PEN    C30 5142   2.124   2.878   6.610
  143PEN    C31 5143   2.267   2.742   6.750
  143PEN    H32 5144   2.443   2.690   6.671
  143PEN    C33 5145   2.145   2.814   6.727
  143PEN    H34 5146   2.042   2.925   6.596
  143PEN    H35 5147   2.281   2.698   6.833
  143PEN    H36 5148   2.078   2.816   6.795
  144PEN     C1 5149   2.306   1.626   0.463
  144PEN     C2 5150   2.404   1.625   0.361
  144PEN     C3 5151   2.181   1.699   0.440
  144PEN     C4 5152   2.323   1.558   0.584
  144PEN     C5 5153   2.384   1.691   0.241
  144PEN     H6 5154   2.485   1.578   0.376
  144PEN     C7 5155   2.164   1.766   0.317
  144PEN     C8 5156   2.084   1.699   0.540
  144PEN     C9 5157   2.225   1.558   0.685
  144PEN    H10 5158   2.404   1.510   0.597
  144PEN    C11 5159   2.483   1.689   0.137
  144PEN    C12 5160   2.261   1.764   0.218
  144PEN    H13 5161   2.084   1.815   0.302
  144PEN    H14 5162   2.002   1.746   0.527
  144PEN    C15 5163   2.101   1.631   0.662
  144PEN    C16 5164   2.242   1.491   0.807
  144PEN    C17 5165   2.462   1.754   0.020
  144PEN    H18 5166   2.564   1.643   0.151
  144PEN    C19 5167   2.244   1.830   0.093
  144PEN    C20 5168   2.002   1.632   0.763
  144PEN    C21 5169   2.145   1.493   0.906
  144PEN    H22 5170   2.322   1.442   0.822
  144PEN    C23 5171   2.340   1.825  -0.003
  144PEN    H24 5172   2.528   1.751  -0.048
  144PEN    H25 5173   2.164   1.878   0.076
  144PEN    H26 5174   1.921   1.678   0.749
  144PEN    C27 5175   2.022   1.566   0.883
  144PEN    C28 5176   2.162   1.427   1.031
  144PEN    H29 5177   2.326   1.870  -0.086
  144PEN    C30 5178   1.923   1.567   0.987
  144PEN    C31 5179   2.066   1.432   1.127
  144PEN    H32 5180   2.242   1.379   1.048
  144PEN    C33 5181   1.944   1.503   1.104
  144PEN    H34 5182   1.842   1.614   0.974
  144PEN    H35 5183   2.080   1.387   1.210
  144PEN    H36 5184   1.878   1.505   1.172
  145PEN     C1 5185   2.379   2.394   0.463
  145PEN     C2 5186   2.478   2.393   0.361
  145PEN     C3 5187   2.255   2.466   0.440
  145PEN     C4 5188   2.396   2.326   0.584
  145PEN     C5 5189   2.458   2.459   0.241
  145PEN     H6 5190   2.559   2.346   0.376
  145PEN     C7 5191   2.238   2.534   0.317
  145PEN     C8 5192   2.157   2.467   0.540
  145PEN     C9 5193   2.299   2.326   0.685
  145PEN    H10 5194   2.478   2.278   0.597
  145PEN    C11 5195   2.556   2.457   0.137
  145PEN    C12 5196   2.335   2.531   0.218
  145PEN    H13 5197   2.158   2.583   0.302
  145PEN    H14 5198   2.076   2.514   0.527
  145PEN    C15 5199   2.174   2.399   0.662
  145PEN    C16 5200   2.316   2.258   0.807
  145PEN    C17 5201   2.535   2.522   0.020
  145PEN    H18 5202   2.638   2.410   0.151
  145PEN    C19 5203   2.318   2.597   0.093
  145PEN    C20 5204   2.076   2.399   0.763
  145PEN    C21 5205   2.218   2.261   0.906
  145PEN    H22 5206   2.396   2.210   0.822
  145PEN    C23 5207   2.414   2.593  -0.003
  145PEN    H24 5208   2.602   2.519  -0.048
  145PEN    H25 5209   2.238   2.646   0.076
  145PEN    H26 5210   1.994   2.446   0.749
  145PEN    C27 5211   2.095   2.334   0.883
  145PEN    C28 5212   2.236   2.195   1.031
  145PEN    H29 5213   2.400   2.638  -0.086
  145PEN    C30 5214   1.997   2.335   0.987
  145PEN    C31 5215   2.140   2.199   1.127
  145PEN    H32 5216   2.316   2.147   1.048
  145PEN    C33 5217   2.018   2.271   1.104
  145PEN    H34 5218   1.915   2.382   0.974
  145PEN    H35 5219   2.154   2.155   1.210
  145PEN    H36 5220   1.951   2.273   1.172
  146PEN     C1 5221   2.580   3.704   6.086
  146PEN     C2 5222   2.678   3.704   5.984
  146PEN     C3 5223   2.455   3.777   6.063
  146PEN     C4 5224   2.597   3.636   6.207
  146PEN     C5 5225   2.659   3.770   5.864
  146PEN     H6 5226   2.760   3.657   5.998
  146PEN     C7 5227   2.438   3.845   5.940
  146PEN     C8 5228   2.358   3.778   6.163
  146PEN     C9 5229   2.499   3.637   6.307
  146PEN    H10 5230   2.678   3.589   6.220
  146PEN    C11 5231   2.757   3.768   5.760
  146PEN    C12 5232   2.535   3.842   5.841
  146PEN    H13 5233   2.358   3.894   5.925
  146PEN    H14 5234   2.276   3.825   6.150
  146PEN    C15 5235   2.375   3.710   6.284
  146PEN    C16 5236   2.516   3.569   6.430
  146PEN    C17 5237   2.736   3.832   5.643
  146PEN    H18 5238   2.838   3.721   5.774
  146PEN    C19 5239   2.518   3.908   5.716
  146PEN    C20 5240   2.276   3.710   6.386
  146PEN    C21 5241   2.419   3.572   6.529
  146PEN    H22 5242   2.596   3.520   6.445
  146PEN    C23 5243   2.614   3.904   5.620
  146PEN    H24 5244   2.802   3.830   5.575
  146PEN    H25 5245   2.438   3.956   5.699
  146PEN    H26 5246   2.195   3.757   6.372
  146PEN    C27 5247   2.296   3.644   6.506
  146PEN    C28 5248   2.436   3.506   6.654
  146PEN    H29 5249   2.600   3.948   5.537
  146PEN    C30 5250   2.197   3.646   6.610
  146PEN    C31 5251   2.340   3.510   6.750
  146PEN    H32 5252   2.516   3.458   6.671
  146PEN    C33 5253   2.219   3.582   6.727
  146PEN    H34 5254   2.116   3.693   6.596
  146PEN    H35 5255   2.354   3.466   6.833
  146PEN    H36 5256   2.152   3.584   6.795
  147PEN     C1 5257   0.846   2.838   0.482
  147PEN     C2 5258   0.945   2.895   0.398
  147PEN     C3 5259   0.723   2.789   0.421
  147PEN     C4 5260   0.864   2.827   0.620
  147PEN     C5 5261   0.928   2.905   0.261
  147PEN     H6 5262   1.026   2.927   0.437
  147PEN     C7 5263   0.708   2.801   0.282
  147PEN     C8 5264   0.625   2.733   0.504
  147PEN     C9 5265   0.766   2.772   0.703
  147PEN    H10 5266   0.946   2.859   0.658
  147PEN    C11 5267   1.027   2.963   0.175
  147PEN    C12 5268   0.805   2.857   0.201
  147PEN    H13 5269   0.627   2.769   0.242
  147PEN    H14 5270   0.544   2.701   0.467
  147PEN    C15 5271   0.643   2.723   0.643
  147PEN    C16 5272   0.782   2.760   0.843
  147PEN    C17 5273   1.007   2.973   0.041
  147PEN    H18 5274   1.108   2.996   0.212
  147PEN    C19 5275   0.789   2.870   0.059
  147PEN    C20 5276   0.544   2.666   0.726
  147PEN    C21 5277   0.684   2.703   0.924
  147PEN    H22 5278   0.862   2.791   0.883
  147PEN    C23 5279   0.887   2.925  -0.017
  147PEN    H24 5280   1.074   3.012  -0.014
  147PEN    H25 5281   0.709   2.839   0.018
  147PEN    H26 5282   0.463   2.634   0.687
  147PEN    C27 5283   0.562   2.656   0.864
  147PEN    C28 5284   0.701   2.691   1.066
  147PEN    H29 5285   0.875   2.931  -0.111
  147PEN    C30 5286   0.462   2.597   0.950
  147PEN    C31 5287   0.603   2.636   1.142
  147PEN    H32 5288   0.781   2.721   1.107
  147PEN    C33 5289   0.482   2.587   1.083
  147PEN    H34 5290   0.381   2.565   0.912
  147PEN    H35 5291   0.615   2.629   1.236
  147PEN    H36 5292   0.415   2.548   1.138
  148PEN     C1 5293   2.553   3.817   3.274
  148PEN     C2 5294   2.651   3.816   3.172
  148PEN     C3 5295   2.429   3.890   3.251
  148PEN     C4 5296   2.570   3.749   3.396
  148PEN     C5 5297   2.632   3.882   3.052
  148PEN     H6 5298   2.733   3.770   3.187
  148PEN     C7 5299   2.412   3.957   3.129
  148PEN     C8 5300   2.331   3.890   3.352
  148PEN     C9 5301   2.472   3.749   3.496
  148PEN    H10 5302   2.651   3.702   3.409
  148PEN    C11 5303   2.730   3.881   2.949
  148PEN    C12 5304   2.509   3.955   3.030
  148PEN    H13 5305   2.331   4.006   3.114
  148PEN    H14 5306   2.250   3.937   3.338
  148PEN    C15 5307   2.348   3.822   3.473
  148PEN    C16 5308   2.490   3.682   3.619
  148PEN    C17 5309   2.709   3.945   2.831
  148PEN    H18 5310   2.812   3.834   2.962
  148PEN    C19 5311   2.492   4.021   2.904
  148PEN    C20 5312   2.250   3.823   3.575
  148PEN    C21 5313   2.392   3.684   3.717
  148PEN    H22 5314   2.570   3.633   3.634
  148PEN    C23 5315   2.587   4.016   2.809
  148PEN    H24 5316   2.776   3.943   2.764
  148PEN    H25 5317   2.411   4.069   2.888
  148PEN    H26 5318   2.168   3.869   3.560
  148PEN    C27 5319   2.269   3.757   3.695
  148PEN    C28 5320   2.409   3.618   3.843
  148PEN    H29 5321   2.574   4.061   2.726
  148PEN    C30 5322   2.171   3.758   3.799
  148PEN    C31 5323   2.314   3.623   3.939
  148PEN    H32 5324   2.490   3.570   3.859
  148PEN    C33 5325   2.192   3.694   3.916
  148PEN    H34 5326   2.089   3.805   3.785
  148PEN    H35 5327   2.328   3.578   4.022
  148PEN    H36 5328   2.125   3.696   3.983
  149PEN     C1 5329   2.653   4.472   6.086
  149PEN     C2 5330   2.752   4.472   5.984
  149PEN     C3 5331   2.529   4.545   6.063
  149PEN     C4 5332   2.670   4.404   6.207
  149PEN     C5 5333   2.732   4.538   5.864
  149PEN     H6 5334   2.833   4.425   5.998
  149PEN     C7 5335   2.512   4.613   5.940
  149PEN     C8 5336   2.431   4.546   6.163
  149PEN     C9 5337   2.573   4.405   6.307
  149PEN    H10 5338   2.752   4.357   6.220
  149PEN    C11 5339   2.831   4.536   5.760
  149PEN    C12 5340   2.609   4.610   5.841
  149PEN    H13 5341   2.432   4.661   5.925
  149PEN    H14 5342   2.350   4.593   6.150
  149PEN    C15 5343   2.448   4.478   6.284
  149PEN    C16 5344   2.590   4.337   6.430
  149PEN    C17 5345   2.809   4.600   5.643
  149PEN    H18 5346   2.912   4.489   5.774
  149PEN    C19 5347   2.592   4.676   5.716
  149PEN    C20 5348   2.350   4.478   6.386
  149PEN    C21 5349   2.493   4.340   6.529
  149PEN    H22 5350   2.670   4.288   6.445
  149PEN    C23 5351   2.688   4.672   5.620
  149PEN    H24 5352   2.876   4.598   5.575
  149PEN    H25 5353   2.512   4.724   5.699
  149PEN    H26 5354   2.268   4.525   6.372
  149PEN    C27 5355   2.369   4.412   6.506
  149PEN    C28 5356   2.510   4.274   6.654
  149PEN    H29 5357   2.674   4.716   5.537
  149PEN    C30 5358   2.271   4.414   6.610
  149PEN    C31 5359   2.414   4.278   6.750
  149PEN    H32 5360   2.590   4.226   6.671
  149PEN    C33 5361   2.292   4.349   6.727
  149PEN    H34 5362   2.190   4.461   6.596
  149PEN    H35 5363   2.428   4.234   6.833
  149PEN    H36 5364   2.226   4.352   6.795
  150PEN     C1 5365   0.717   3.491   0.643
  150PEN     C2 5366   0.617   3.434   0.726
  150PEN     C3 5367   0.840   3.539   0.703
  150PEN     C4 5368   0.699   3.501   0.504
  150PEN     C5 5369   0.635   3.423   0.864
  150PEN     H6 5370   0.537   3.401   0.687
  150PEN     C7 5371   0.855   3.528   0.843
  150PEN     C8 5372   0.938   3.595   0.620
  150PEN     C9 5373   0.797   3.557   0.421
  150PEN    H10 5374   0.617   3.469   0.467
  150PEN    C11 5375   0.536   3.365   0.950
  150PEN    C12 5376   0.758   3.471   0.924
  150PEN    H13 5377   0.936   3.559   0.883
  150PEN    H14 5378   1.019   3.627   0.658
  150PEN    C15 5379   0.920   3.605   0.482
  150PEN    C16 5380   0.781   3.569   0.282
  150PEN    C17 5381   0.556   3.355   1.083
  150PEN    H18 5382   0.455   3.332   0.912
  150PEN    C19 5383   0.774   3.458   1.066
  150PEN    C20 5384   1.019   3.663   0.398
  150PEN    C21 5385   0.879   3.625   0.201
  150PEN    H22 5386   0.701   3.537   0.242
  150PEN    C23 5387   0.676   3.403   1.142
  150PEN    H24 5388   0.489   3.316   1.138
  150PEN    H25 5389   0.854   3.489   1.107
  150PEN    H26 5390   1.100   3.695   0.437
  150PEN    C27 5391   1.001   3.673   0.261
  150PEN    C28 5392   0.862   3.638   0.059
  150PEN    H29 5393   0.688   3.397   1.236
  150PEN    C30 5394   1.101   3.731   0.175
  150PEN    C31 5395   0.960   3.693  -0.017
  150PEN    H32 5396   0.782   3.607   0.018
  150PEN    C33 5397   1.081   3.741   0.041
  150PEN    H34 5398   1.182   3.764   0.212
  150PEN    H35 5399   0.948   3.699  -0.111
  150PEN    H36 5400   1.148   3.780  -0.014
  151PEN     C1 5401   2.508   0.534   0.482
  151PEN     C2 5402   2.607   0.591   0.398
  151PEN     C3 5403   2.385   0.485   0.421
  151PEN     C4 5404   2.526   0.524   0.620
  151PEN     C5 5405   2.589   0.601   0.261
  151PEN     H6 5406   2.688   0.623   0.437
  151PEN     C7 5407   2.369   0.497   0.282
  151PEN     C8 5408   2.287   0.429   0.504
  151PEN     C9 5409   2.428   0.468   0.703
  151PEN    H10 5410   2.607   0.555   0.658
  151PEN    C11 5411   2.689   0.660   0.175
  151PEN    C12 5412   2.467   0.554   0.201
  151PEN    H13 5413   2.289   0.465   0.242
  151PEN    H14 5414   2.205   0.398   0.467
  151PEN    C15 5415   2.305   0.419   0.643
  151PEN    C16 5416   2.444   0.456   0.843
  151PEN    C17 5417   2.669   0.670   0.041
  151PEN    H18 5418   2.770   0.692   0.212
  151PEN    C19 5419   2.451   0.566   0.059
  151PEN    C20 5420   2.206   0.362   0.726
  151PEN    C21 5421   2.346   0.400   0.924
  151PEN    H22 5422   2.524   0.488   0.883
  151PEN    C23 5423   2.548   0.621  -0.017
  151PEN    H24 5424   2.736   0.709  -0.014
  151PEN    H25 5425   2.371   0.536   0.018
  151PEN    H26 5426   2.125   0.330   0.687
  151PEN    C27 5427   2.223   0.352   0.864
  151PEN    C28 5428   2.362   0.387   1.066
  151PEN    H29 5429   2.536   0.628  -0.111
  151PEN    C30 5430   2.124   0.293   0.950
  151PEN    C31 5431   2.264   0.332   1.142
  151PEN    H32 5432   2.442   0.418   1.107
  151PEN    C33 5433   2.144   0.284   1.083
  151PEN    H34 5434   2.043   0.261   0.912
  151PEN    H35 5435   2.277   0.325   1.236
  151PEN    H36 5436   2.077   0.245   1.138
  152PEN     C1 5437   2.378   1.187   0.643
  152PEN     C2 5438   2.279   1.130   0.726
  152PEN     C3 5439   2.501   1.236   0.703
  152PEN     C4 5440   2.360   1.197   0.504
  152PEN     C5 5441   2.297   1.120   0.864
  152PEN     H6 5442   2.199   1.098   0.687
  152PEN     C7 5443   2.517   1.224   0.843
  152PEN     C8 5444   2.600   1.292   0.620
  152PEN     C9 5445   2.459   1.253   0.421
  152PEN    H10 5446   2.279   1.166   0.467
  152PEN    C11 5447   2.197   1.061   0.950
  152PEN    C12 5448   2.420   1.167   0.924
  152PEN    H13 5449   2.597   1.256   0.883
  152PEN    H14 5450   2.681   1.323   0.658
  152PEN    C15 5451   2.582   1.302   0.482
  152PEN    C16 5452   2.443   1.265   0.282
  152PEN    C17 5453   2.217   1.052   1.083
  152PEN    H18 5454   2.116   1.029   0.912
  152PEN    C19 5455   2.436   1.155   1.066
  152PEN    C20 5456   2.681   1.359   0.398
  152PEN    C21 5457   2.541   1.322   0.201
  152PEN    H22 5458   2.363   1.233   0.242
  152PEN    C23 5459   2.338   1.100   1.142
  152PEN    H24 5460   2.150   1.012   1.138
  152PEN    H25 5461   2.516   1.186   1.107
  152PEN    H26 5462   2.761   1.391   0.437
  152PEN    C27 5463   2.663   1.369   0.261
  152PEN    C28 5464   2.524   1.334   0.059
  152PEN    H29 5465   2.350   1.093   1.236
  152PEN    C30 5466   2.763   1.428   0.175
  152PEN    C31 5467   2.622   1.389  -0.017
  152PEN    H32 5468   2.444   1.303   0.018
  152PEN    C33 5469   2.743   1.437   0.041
  152PEN    H34 5470   2.844   1.460   0.212
  152PEN    H35 5471   2.610   1.396  -0.111
  152PEN    H36 5472   2.810   1.477  -0.014
  153PEN     C1 5473   2.452   1.955   0.643
  153PEN     C2 5474   2.353   1.898   0.726
  153PEN     C3 5475   2.575   2.004   0.703
  153PEN     C4 5476   2.434   1.965   0.504
  153PEN     C5 5477   2.371   1.888   0.864
  153PEN     H6 5478   2.272   1.866   0.687
  153PEN     C7 5479   2.591   1.992   0.843
  153PEN     C8 5480   2.673   2.059   0.620
  153PEN     C9 5481   2.532   2.021   0.421
  153PEN    H10 5482   2.353   1.933   0.467
  153PEN    C11 5483   2.271   1.829   0.950
  153PEN    C12 5484   2.493   1.935   0.924
  153PEN    H13 5485   2.671   2.024   0.883
  153PEN    H14 5486   2.755   2.091   0.658
  153PEN    C15 5487   2.655   2.070   0.482
  153PEN    C16 5488   2.517   2.033   0.282
  153PEN    C17 5489   2.291   1.819   1.083
  153PEN    H18 5490   2.190   1.797   0.912
  153PEN    C19 5491   2.510   1.923   1.066
  153PEN    C20 5492   2.754   2.127   0.398
  153PEN    C21 5493   2.614   2.089   0.201
  153PEN    H22 5494   2.436   2.001   0.242
  153PEN    C23 5495   2.412   1.868   1.142
  153PEN    H24 5496   2.224   1.780   1.138
  153PEN    H25 5497   2.590   1.953   1.107
  153PEN    H26 5498   2.835   2.159   0.437
  153PEN    C27 5499   2.737   2.137   0.261
  153PEN    C28 5500   2.598   2.102   0.059
  153PEN    H29 5501   2.424   1.861   1.236
  153PEN    C30 5502   2.836   2.196   0.175
  153PEN    C31 5503   2.696   2.157  -0.017
  153PEN    H32 5504   2.518   2.071   0.018
  153PEN    C33 5505   2.816   2.205   0.041
  153PEN    H34 5506   2.917   2.228   0.212
  153PEN    H35 5507   2.684   2.163  -0.111
  153PEN    H36 5508   2.883   2.244  -0.014
  154PEN     C1 5509   2.729   2.838   0.482
  154PEN     C2 5510   2.828   2.895   0.398
  154PEN     C3 5511   2.606   2.789   0.421
  154PEN     C4 5512   2.747   2.827   0.620
  154PEN     C5 5513   2.810   2.905   0.261
  154PEN     H6 5514   2.909   2.927   0.437
  154PEN     C7 5515   2.590   2.801   0.282
  154PEN     C8 5516   2.508   2.733   0.504
  154PEN     C9 5517   2.649   2.772   0.703
  154PEN    H10 5518   2.828   2.859   0.658
  154PEN    C11 5519   2.910   2.963   0.175
  154PEN    C12 5520   2.688   2.857   0.201
  154PEN    H13 5521   2.510   2.769   0.242
  154PEN    H14 5522   2.426   2.701   0.467
  154PEN    C15 5523   2.526   2.723   0.643
  154PEN    C16 5524   2.664   2.760   0.843
  154PEN    C17 5525   2.890   2.973   0.041
  154PEN    H18 5526   2.991   2.996   0.212
  154PEN    C19 5527   2.671   2.870   0.059
  154PEN    C20 5528   2.426   2.666   0.726
  154PEN    C21 5529   2.567   2.703   0.924
  154PEN    H22 5530   2.744   2.791   0.883
  154PEN    C23 5531   2.769   2.925  -0.017
  154PEN    H24 5532   2.957   3.012  -0.014
  154PEN    H25 5533   2.591   2.839   0.018
  154PEN    H26 5534   2.346   2.634   0.687
  154PEN    C27 5535   2.444   2.656   0.864
  154PEN    C28 5536   2.583   2.691   1.066
  154PEN    H29 5537   2.757   2.931  -0.111
  154PEN    C30 5538   2.345   2.597   0.950
  154PEN    C31 5539   2.485   2.636   1.142
  154PEN    H32 5540   2.663   2.721   1.107
  154PEN    C33 5541   2.364   2.587   1.083
  154PEN    H34 5542   2.264   2.565   0.912
  154PEN    H35 5543   2.497   2.629   1.236
  154PEN    H36 5544   2.298   2.548   1.138
  155PEN     C1 5545   2.802   3.605   0.482
  155PEN     C2 5546   2.902   3.663   0.398
  155PEN     C3 5547   2.679   3.557   0.421
  155PEN     C4 5548   2.820   3.595   0.620
  155PEN     C5 5549   2.884   3.673   0.261
  155PEN     H6 5550   2.982   3.695   0.437
  155PEN     C7 5551   2.664   3.569   0.282
  155PEN     C8 5552   2.581   3.501   0.504
  155PEN     C9 5553   2.722   3.539   0.703
  155PEN    H10 5554   2.902   3.627   0.658
  155PEN    C11 5555   2.983   3.731   0.175
  155PEN    C12 5556   2.761   3.625   0.201
  155PEN    H13 5557   2.584   3.537   0.242
  155PEN    H14 5558   2.500   3.469   0.467
  155PEN    C15 5559   2.599   3.491   0.643
  155PEN    C16 5560   2.738   3.528   0.843
  155PEN    C17 5561   2.964   3.741   0.041
  155PEN    H18 5562   3.064   3.764   0.212
  155PEN    C19 5563   2.745   3.638   0.059
  155PEN    C20 5564   2.500   3.434   0.726
  155PEN    C21 5565   2.640   3.471   0.924
  155PEN    H22 5566   2.818   3.559   0.883
  155PEN    C23 5567   2.843   3.693  -0.017
  155PEN    H24 5568   3.030   3.780  -0.014
  155PEN    H25 5569   2.665   3.607   0.018
  155PEN    H26 5570   2.420   3.401   0.687
  155PEN    C27 5571   2.518   3.423   0.864
  155PEN    C28 5572   2.657   3.458   1.066
  155PEN    H29 5573   2.831   3.699  -0.111
  155PEN    C30 5574   2.418   3.365   0.950
  155PEN    C31 5575   2.559   3.403   1.142
  155PEN    H32 5576   2.737   3.489   1.107
  155PEN    C33 5577   2.438   3.355   1.083
  155PEN    H34 5578   2.337   3.332   0.912
  155PEN    H35 5579   2.571   3.397   1.236
  155PEN    H36 5580   2.371   3.316   1.138
  156PEN     C1 5581   2.658   1.517   4.699
  156PEN     C2 5582   2.758   1.574   4.615
  156PEN     C3 5583   2.535   1.468   4.638
  156PEN     C4 5584   2.676   1.507   4.837
  156PEN     C5 5585   2.740   1.584   4.478
  156PEN     H6 5586   2.838   1.606   4.654
  156PEN     C7 5587   2.520   1.480   4.499
  156PEN     C8 5588   2.437   1.412   4.721
  156PEN     C9 5589   2.578   1.451   4.920
  156PEN    H10 5590   2.758   1.539   4.875
  156PEN    C11 5591   2.839   1.643   4.392
  156PEN    C12 5592   2.617   1.537   4.418
  156PEN    H13 5593   2.440   1.448   4.459
  156PEN    H14 5594   2.356   1.381   4.684
  156PEN    C15 5595   2.455   1.402   4.860
  156PEN    C16 5596   2.594   1.439   5.060
  156PEN    C17 5597   2.820   1.653   4.258
  156PEN    H18 5598   2.920   1.675   4.429
  156PEN    C19 5599   2.601   1.549   4.276
  156PEN    C20 5600   2.356   1.345   4.943
  156PEN    C21 5601   2.496   1.383   5.141
  156PEN    H22 5602   2.674   1.471   5.100
  156PEN    C23 5603   2.699   1.604   4.200
  156PEN    H24 5604   2.886   1.692   4.203
  156PEN    H25 5605   2.521   1.519   4.235
  156PEN    H26 5606   2.275   1.313   4.904
  156PEN    C27 5607   2.374   1.335   5.081
  156PEN    C28 5608   2.513   1.370   5.283
  156PEN    H29 5609   2.687   1.611   4.106
  156PEN    C30 5610   2.274   1.276   5.167
  156PEN    C31 5611   2.415   1.315   5.359
  156PEN    H32 5612   2.593   1.401   5.324
  156PEN    C33 5613   2.294   1.267   5.301
  156PEN    H34 5614   2.193   1.244   5.129
  156PEN    H35 5615   2.427   1.308   5.453
  156PEN    H36 5616   2.227   1.228   5.356
  157PEN     C1 5617   2.558   0.862   1.887
  157PEN     C2 5618   2.657   0.919   1.804
  157PEN     C3 5619   2.435   0.813   1.827
  157PEN     C4 5620   2.576   0.851   2.026
  157PEN     C5 5621   2.639   0.929   1.667
  157PEN     H6 5622   2.738   0.951   1.843
  157PEN     C7 5623   2.419   0.825   1.688
  157PEN     C8 5624   2.337   0.757   1.910
  157PEN     C9 5625   2.478   0.796   2.109
  157PEN    H10 5626   2.657   0.883   2.063
  157PEN    C11 5627   2.739   0.988   1.580
  157PEN    C12 5628   2.517   0.881   1.607
  157PEN    H13 5629   2.339   0.793   1.648
  157PEN    H14 5630   2.256   0.725   1.873
  157PEN    C15 5631   2.355   0.747   2.049
  157PEN    C16 5632   2.494   0.784   2.248
  157PEN    C17 5633   2.719   0.997   1.447
  157PEN    H18 5634   2.820   1.020   1.618
  157PEN    C19 5635   2.501   0.894   1.464
  157PEN    C20 5636   2.256   0.690   2.132
  157PEN    C21 5637   2.396   0.727   2.329
  157PEN    H22 5638   2.574   0.816   2.288
  157PEN    C23 5639   2.599   0.949   1.388
  157PEN    H24 5640   2.786   1.036   1.392
  157PEN    H25 5641   2.421   0.863   1.423
  157PEN    H26 5642   2.175   0.658   2.093
  157PEN    C27 5643   2.274   0.680   2.269
  157PEN    C28 5644   2.412   0.715   2.471
  157PEN    H29 5645   2.586   0.955   1.294
  157PEN    C30 5646   2.174   0.621   2.356
  157PEN    C31 5647   2.315   0.660   2.548
  157PEN    H32 5648   2.492   0.745   2.513
  157PEN    C33 5649   2.194   0.611   2.489
  157PEN    H34 5650   2.093   0.589   2.318
  157PEN    H35 5651   2.327   0.653   2.642
  157PEN    H36 5652   2.127   0.572   2.544
  158PEN     C1 5653   2.405   1.075   3.454
  158PEN     C2 5654   2.306   1.017   3.538
  158PEN     C3 5655   2.528   1.123   3.515
  158PEN     C4 5656   2.387   1.085   3.316
  158PEN     C5 5657   2.324   1.007   3.675
  158PEN     H6 5658   2.225   0.985   3.499
  158PEN     C7 5659   2.544   1.111   3.654
  158PEN     C8 5660   2.626   1.179   3.432
  158PEN     C9 5661   2.485   1.141   3.233
  158PEN    H10 5662   2.306   1.053   3.278
  158PEN    C11 5663   2.224   0.949   3.761
  158PEN    C12 5664   2.446   1.055   3.735
  158PEN    H13 5665   2.624   1.143   3.694
  158PEN    H14 5666   2.708   1.211   3.469
  158PEN    C15 5667   2.608   1.189   3.293
  158PEN    C16 5668   2.470   1.152   3.093
  158PEN    C17 5669   2.244   0.939   3.895
  158PEN    H18 5670   2.143   0.916   3.724
  158PEN    C19 5671   2.463   1.042   3.877
  158PEN    C20 5672   2.707   1.246   3.210
  158PEN    C21 5673   2.567   1.209   3.012
  158PEN    H22 5674   2.389   1.121   3.053
  158PEN    C23 5675   2.365   0.987   3.953
  158PEN    H24 5676   2.177   0.900   3.950
  158PEN    H25 5677   2.543   1.073   3.918
  158PEN    H26 5678   2.788   1.279   3.249
  158PEN    C27 5679   2.690   1.257   3.072
  158PEN    C28 5680   2.551   1.222   2.870
  158PEN    H29 5681   2.377   0.981   4.047
  158PEN    C30 5682   2.789   1.315   2.986
  158PEN    C31 5683   2.649   1.277   2.794
  158PEN    H32 5684   2.471   1.191   2.829
  158PEN    C33 5685   2.769   1.325   2.852
  158PEN    H34 5686   2.870   1.348   3.023
  158PEN    H35 5687   2.637   1.283   2.700
  158PEN    H36 5688   2.836   1.364   2.797
  159PEN     C1 5689   2.505   1.730   6.266
  159PEN     C2 5690   2.406   1.673   6.349
  159PEN     C3 5691   2.628   1.779   6.326
  159PEN     C4 5692   2.487   1.740   6.127
  159PEN     C5 5693   2.424   1.663   6.486
  159PEN     H6 5694   2.326   1.641   6.310
  159PEN     C7 5695   2.644   1.767   6.465
  159PEN     C8 5696   2.726   1.835   6.243
  159PEN     C9 5697   2.585   1.796   6.044
  159PEN    H10 5698   2.406   1.708   6.090
  159PEN    C11 5699   2.324   1.604   6.573
  159PEN    C12 5700   2.546   1.710   6.546
  159PEN    H13 5701   2.724   1.799   6.505
  159PEN    H14 5702   2.808   1.866   6.280
  159PEN    C15 5703   2.709   1.845   6.104
  159PEN    C16 5704   2.570   1.808   5.905
  159PEN    C17 5705   2.344   1.594   6.706
  159PEN    H18 5706   2.243   1.572   6.535
  159PEN    C19 5707   2.563   1.698   6.689
  159PEN    C20 5708   2.808   1.902   6.021
  159PEN    C21 5709   2.667   1.864   5.824
  159PEN    H22 5710   2.490   1.776   5.865
  159PEN    C23 5711   2.465   1.643   6.765
  159PEN    H24 5712   2.277   1.555   6.761
  159PEN    H25 5713   2.643   1.728   6.730
  159PEN    H26 5714   2.888   1.934   6.060
  159PEN    C27 5715   2.790   1.912   5.884
  159PEN    C28 5716   2.651   1.877   5.681
  159PEN    H29 5717   2.477   1.636   6.859
  159PEN    C30 5718   2.889   1.971   5.797
  159PEN    C31 5719   2.749   1.932   5.605
  159PEN    H32 5720   2.571   1.846   5.640
  159PEN    C33 5721   2.870   1.980   5.664
  159PEN    H34 5722   2.970   2.003   5.835
  159PEN    H35 5723   2.737   1.939   5.511
  159PEN    H36 5724   2.937   2.019   5.609
  160PEN     C1 5725   2.579   2.498   6.266
  160PEN     C2 5726   2.480   2.441   6.349
  160PEN     C3 5727   2.702   2.547   6.326
  160PEN     C4 5728   2.561   2.508   6.127
  160PEN     C5 5729   2.498   2.431   6.486
  160PEN     H6 5730   2.399   2.409   6.310
  160PEN     C7 5731   2.718   2.535   6.465
  160PEN     C8 5732   2.800   2.602   6.243
  160PEN     C9 5733   2.659   2.564   6.044
  160PEN    H10 5734   2.480   2.476   6.090
  160PEN    C11 5735   2.398   2.372   6.573
  160PEN    C12 5736   2.620   2.478   6.546
  160PEN    H13 5737   2.798   2.566   6.505
  160PEN    H14 5738   2.881   2.634   6.280
  160PEN    C15 5739   2.782   2.613   6.104
  160PEN    C16 5740   2.643   2.576   5.905
  160PEN    C17 5741   2.418   2.362   6.706
  160PEN    H18 5742   2.317   2.340   6.535
  160PEN    C19 5743   2.636   2.466   6.689
  160PEN    C20 5744   2.881   2.670   6.021
  160PEN    C21 5745   2.741   2.632   5.824
  160PEN    H22 5746   2.563   2.544   5.865
  160PEN    C23 5747   2.539   2.411   6.765
  160PEN    H24 5748   2.351   2.323   6.761
  160PEN    H25 5749   2.716   2.496   6.730
  160PEN    H26 5750   2.962   2.702   6.060
  160PEN    C27 5751   2.863   2.680   5.884
  160PEN    C28 5752   2.725   2.645   5.681
  160PEN    H29 5753   2.551   2.404   6.859
  160PEN    C30 5754   2.963   2.738   5.797
  160PEN    C31 5755   2.823   2.700   5.605
  160PEN    H32 5756   2.645   2.614   5.640
  160PEN    C33 5757   2.943   2.748   5.664
  160PEN    H34 5758   3.044   2.771   5.835
  160PEN    H35 5759   2.810   2.706   5.511
  160PEN    H36 5760   3.010   2.787   5.609
  161PEN     C1 5761   2.632   1.630   1.887
  161PEN     C2 5762   2.731   1.687   1.804
  161PEN     C3 5763   2.509   1.581   1.827
  161PEN     C4 5764   2.650   1.619   2.026
  161PEN     C5 5765   2.713   1.697   1.667
  161PEN     H6 5766   2.812   1.719   1.843
  161PEN     C7 5767   2.493   1.593   1.688
  161PEN     C8 5768   2.411   1.525   1.910
  161PEN     C9 5769   2.552   1.564   2.109
  161PEN    H10 5770   2.731   1.651   2.063
  161PEN    C11 5771   2.813   1.755   1.580
  161PEN    C12 5772   2.591   1.649   1.607
  161PEN    H13 5773   2.413   1.561   1.648
  161PEN    H14 5774   2.329   1.493   1.873
  161PEN    C15 5775   2.429   1.515   2.049
  161PEN    C16 5776   2.567   1.552   2.248
  161PEN    C17 5777   2.793   1.765   1.447
  161PEN    H18 5778   2.894   1.788   1.618
  161PEN    C19 5779   2.574   1.662   1.464
  161PEN    C20 5780   2.329   1.458   2.132
  161PEN    C21 5781   2.470   1.495   2.329
  161PEN    H22 5782   2.647   1.583   2.288
  161PEN    C23 5783   2.672   1.717   1.388
  161PEN    H24 5784   2.860   1.804   1.392
  161PEN    H25 5785   2.494   1.631   1.423
  161PEN    H26 5786   2.249   1.426   2.093
  161PEN    C27 5787   2.347   1.448   2.269
  161PEN    C28 5788   2.486   1.483   2.471
  161PEN    H29 5789   2.660   1.723   1.294
  161PEN    C30 5790   2.248   1.389   2.356
  161PEN    C31 5791   2.388   1.427   2.548
  161PEN    H32 5792   2.566   1.513   2.513
  161PEN    C33 5793   2.267   1.379   2.489
  161PEN    H34 5794   2.167   1.357   2.318
  161PEN    H35 5795   2.400   1.421   2.642
  161PEN    H36 5796   2.201   1.340   2.544
  162PEN     C1 5797   2.682   1.957   3.293
  162PEN     C2 5798   2.781   2.014   3.210
  162PEN     C3 5799   2.559   1.908   3.233
  162PEN     C4 5800   2.700   1.947   3.432
  162PEN     C5 5801   2.763   2.024   3.072
  162PEN     H6 5802   2.862   2.046   3.249
  162PEN     C7 5803   2.543   1.920   3.093
  162PEN     C8 5804   2.461   1.853   3.316
  162PEN     C9 5805   2.602   1.891   3.515
  162PEN    H10 5806   2.781   1.979   3.469
  162PEN    C11 5807   2.863   2.083   2.986
  162PEN    C12 5808   2.641   1.977   3.012
  162PEN    H13 5809   2.463   1.889   3.053
  162PEN    H14 5810   2.379   1.821   3.278
  162PEN    C15 5811   2.479   1.842   3.454
  162PEN    C16 5812   2.617   1.879   3.654
  162PEN    C17 5813   2.843   2.093   2.852
  162PEN    H18 5814   2.944   2.115   3.023
  162PEN    C19 5815   2.624   1.989   2.870
  162PEN    C20 5816   2.379   1.785   3.538
  162PEN    C21 5817   2.520   1.823   3.735
  162PEN    H22 5818   2.698   1.911   3.694
  162PEN    C23 5819   2.722   2.045   2.794
  162PEN    H24 5820   2.910   2.132   2.797
  162PEN    H25 5821   2.544   1.959   2.829
  162PEN    H26 5822   2.299   1.753   3.499
  162PEN    C27 5823   2.397   1.775   3.675
  162PEN    C28 5824   2.536   1.810   3.877
  162PEN    H29 5825   2.710   2.051   2.700
  162PEN    C30 5826   2.298   1.717   3.761
  162PEN    C31 5827   2.438   1.755   3.953
  162PEN    H32 5828   2.616   1.841   3.918
  162PEN    C33 5829   2.318   1.707   3.895
  162PEN    H34 5830   2.217   1.684   3.724
  162PEN    H35 5831   2.450   1.749   4.047
  162PEN    H36 5832   2.251   1.668   3.950
  163PEN     C1 5833   2.529   2.170   4.860
  163PEN     C2 5834   2.430   2.113   4.943
  163PEN     C3 5835   2.652   2.219   4.920
  163PEN     C4 5836   2.511   2.180   4.721
  163PEN     C5 5837   2.447   2.103   5.081
  163PEN     H6 5838   2.349   2.081   4.904
  163PEN     C7 5839   2.667   2.207   5.060
  163PEN     C8 5840   2.750   2.275   4.837
  163PEN     C9 5841   2.609   2.236   4.638
  163PEN    H10 5842   2.429   2.149   4.684
  163PEN    C11 5843   2.348   2.044   5.167
  163PEN    C12 5844   2.570   2.150   5.141
  163PEN    H13 5845   2.748   2.239   5.100
  163PEN    H14 5846   2.831   2.306   4.875
  163PEN    C15 5847   2.732   2.285   4.699
  163PEN    C16 5848   2.593   2.248   4.499
  163PEN    C17 5849   2.368   2.035   5.301
  163PEN    H18 5850   2.267   2.012   5.129
  163PEN    C19 5851   2.586   2.138   5.283
  163PEN    C20 5852   2.831   2.342   4.615
  163PEN    C21 5853   2.691   2.305   4.418
  163PEN    H22 5854   2.513   2.216   4.459
  163PEN    C23 5855   2.488   2.083   5.359
  163PEN    H24 5856   2.301   1.995   5.356
  163PEN    H25 5857   2.666   2.169   5.324
  163PEN    H26 5858   2.912   2.374   4.654
  163PEN    C27 5859   2.813   2.352   4.478
  163PEN    C28 5860   2.675   2.317   4.276
  163PEN    H29 5861   2.501   2.076   5.453
  163PEN    C30 5862   2.913   2.411   4.392
  163PEN    C31 5863   2.772   2.372   4.200
  163PEN    H32 5864   2.595   2.286   4.235
  163PEN    C33 5865   2.893   2.420   4.258
  163PEN    H34 5866   2.994   2.443   4.429
  163PEN    H35 5867   2.760   2.379   4.106
  163PEN    H36 5868   2.960   2.460   4.203
  164PEN     C1 5869   2.502   2.283   2.049
  164PEN     C2 5870   2.403   2.225   2.132
  164PEN     C3 5871   2.625   2.331   2.109
  164PEN     C4 5872   2.484   2.293   1.910
  164PEN     C5 5873   2.421   2.215   2.269
  164PEN     H6 5874   2.322   2.193   2.093
  164PEN     C7 5875   2.641   2.320   2.248
  164PEN     C8 5876   2.723   2.387   2.026
  164PEN     C9 5877   2.582   2.349   1.827
  164PEN    H10 5878   2.403   2.261   1.873
  164PEN    C11 5879   2.321   2.157   2.356
  164PEN    C12 5880   2.543   2.263   2.329
  164PEN    H13 5881   2.721   2.351   2.288
  164PEN    H14 5882   2.805   2.419   2.063
  164PEN    C15 5883   2.705   2.397   1.887
  164PEN    C16 5884   2.567   2.361   1.688
  164PEN    C17 5885   2.341   2.147   2.489
  164PEN    H18 5886   2.240   2.124   2.318
  164PEN    C19 5887   2.560   2.250   2.471
  164PEN    C20 5888   2.805   2.455   1.804
  164PEN    C21 5889   2.664   2.417   1.607
  164PEN    H22 5890   2.487   2.329   1.648
  164PEN    C23 5891   2.462   2.195   2.548
  164PEN    H24 5892   2.274   2.108   2.544
  164PEN    H25 5893   2.640   2.281   2.513
  164PEN    H26 5894   2.885   2.487   1.843
  164PEN    C27 5895   2.787   2.465   1.667
  164PEN    C28 5896   2.648   2.430   1.464
  164PEN    H29 5897   2.474   2.189   2.642
  164PEN    C30 5898   2.886   2.523   1.580
  164PEN    C31 5899   2.746   2.485   1.388
  164PEN    H32 5900   2.568   2.399   1.423
  164PEN    C33 5901   2.867   2.533   1.447
  164PEN    H34 5902   2.967   2.556   1.618
  164PEN    H35 5903   2.734   2.491   1.294
  164PEN    H36 5904   2.933   2.572   1.392
  165PEN     C1 5905   2.756   2.725   3.293
  165PEN     C2 5906   2.855   2.782   3.210
  165PEN     C3 5907   2.632   2.676   3.233
  165PEN     C4 5908   2.773   2.715   3.432
  165PEN     C5 5909   2.837   2.792   3.072
  165PEN     H6 5910   2.935   2.814   3.249
  165PEN     C7 5911   2.617   2.688   3.093
  165PEN     C8 5912   2.534   2.621   3.316
  165PEN     C9 5913   2.675   2.659   3.515
  165PEN    H10 5914   2.855   2.747   3.469
  165PEN    C11 5915   2.936   2.851   2.986
  165PEN    C12 5916   2.714   2.745   3.012
  165PEN    H13 5917   2.537   2.656   3.053
  165PEN    H14 5918   2.453   2.589   3.278
  165PEN    C15 5919   2.552   2.610   3.454
  165PEN    C16 5920   2.691   2.647   3.654
  165PEN    C17 5921   2.917   2.861   2.852
  165PEN    H18 5922   3.017   2.883   3.023
  165PEN    C19 5923   2.698   2.757   2.870
  165PEN    C20 5924   2.453   2.553   3.538
  165PEN    C21 5925   2.593   2.591   3.735
  165PEN    H22 5926   2.771   2.679   3.694
  165PEN    C23 5927   2.796   2.812   2.794
  165PEN    H24 5928   2.983   2.900   2.797
  165PEN    H25 5929   2.618   2.727   2.829
  165PEN    H26 5930   2.373   2.521   3.499
  165PEN    C27 5931   2.471   2.543   3.675
  165PEN    C28 5932   2.610   2.578   3.877
  165PEN    H29 5933   2.784   2.819   2.700
  165PEN    C30 5934   2.371   2.484   3.761
  165PEN    C31 5935   2.512   2.523   3.953
  165PEN    H32 5936   2.690   2.609   3.918
  165PEN    C33 5937   2.391   2.475   3.895
  165PEN    H34 5938   2.290   2.452   3.724
  165PEN    H35 5939   2.524   2.517   4.047
  165PEN    H36 5940   2.324   2.436   3.950
  166PEN     C1 5941   2.602   2.938   4.860
  166PEN     C2 5942   2.503   2.881   4.943
  166PEN     C3 5943   2.725   2.987   4.920
  166PEN     C4 5944   2.584   2.948   4.721
  166PEN     C5 5945   2.521   2.871   5.081
  166PEN     H6 5946   2.423   2.849   4.904
  166PEN     C7 5947   2.741   2.975   5.060
  166PEN     C8 5948   2.824   3.043   4.837
  166PEN     C9 5949   2.683   3.004   4.638
  166PEN    H10 5950   2.503   2.916   4.684
  166PEN    C11 5951   2.421   2.812   5.167
  166PEN    C12 5952   2.644   2.918   5.141
  166PEN    H13 5953   2.821   3.007   5.100
  166PEN    H14 5954   2.905   3.074   4.875
  166PEN    C15 5955   2.806   3.053   4.699
  166PEN    C16 5956   2.667   3.016   4.499
  166PEN    C17 5957   2.441   2.802   5.301
  166PEN    H18 5958   2.340   2.780   5.129
  166PEN    C19 5959   2.660   2.906   5.283
  166PEN    C20 5960   2.905   3.110   4.615
  166PEN    C21 5961   2.765   3.072   4.418
  166PEN    H22 5962   2.587   2.984   4.459
  166PEN    C23 5963   2.562   2.851   5.359
  166PEN    H24 5964   2.374   2.763   5.356
  166PEN    H25 5965   2.740   2.936   5.324
  166PEN    H26 5966   2.985   3.142   4.654
  166PEN    C27 5967   2.887   3.120   4.478
  166PEN    C28 5968   2.748   3.085   4.276
  166PEN    H29 5969   2.574   2.844   5.453
  166PEN    C30 5970   2.987   3.179   4.392
  166PEN    C31 5971   2.846   3.140   4.200
  166PEN    H32 5972   2.668   3.054   4.235
  166PEN    C33 5973   2.967   3.188   4.258
  166PEN    H34 5974   3.068   3.211   4.429
  166PEN    H35 5975   2.834   3.147   4.106
  166PEN    H36 5976   3.034   3.227   4.203
  167PEN     C1 5977   2.856   3.380   6.104
  167PEN     C2 5978   2.955   3.438   6.021
  167PEN     C3 5979   2.733   3.332   6.044
  167PEN     C4 5980   2.874   3.370   6.243
  167PEN     C5 5981   2.937   3.448   5.884
  167PEN     H6 5982   3.035   3.470   6.060
  167PEN     C7 5983   2.717   3.344   5.905
  167PEN     C8 5984   2.635   3.276   6.127
  167PEN     C9 5985   2.776   3.314   6.326
  167PEN    H10 5986   2.955   3.402   6.280
  167PEN    C11 5987   3.037   3.506   5.797
  167PEN    C12 5988   2.815   3.400   5.824
  167PEN    H13 5989   2.637   3.312   5.865
  167PEN    H14 5990   2.553   3.244   6.090
  167PEN    C15 5991   2.653   3.266   6.266
  167PEN    C16 5992   2.791   3.303   6.465
  167PEN    C17 5993   3.017   3.516   5.664
  167PEN    H18 5994   3.118   3.539   5.835
  167PEN    C19 5995   2.798   3.413   5.681
  167PEN    C20 5996   2.553   3.209   6.349
  167PEN    C21 5997   2.694   3.246   6.546
  167PEN    H22 5998   2.871   3.334   6.505
  167PEN    C23 5999   2.896   3.468   5.605
  167PEN    H24 6000   3.084   3.555   5.609
  167PEN    H25 6001   2.718   3.382   5.640
  167PEN    H26 6002   2.473   3.176   6.310
  167PEN    C27 6003   2.571   3.198   6.486
  167PEN    C28 6004   2.710   3.234   6.689
  167PEN    H29 6005   2.884   3.474   5.511
  167PEN    C30 6006   2.472   3.140   6.573
  167PEN    C31 6007   2.612   3.178   6.765
  167PEN    H32 6008   2.790   3.264   6.730
  167PEN    C33 6009   2.491   3.130   6.706
  167PEN    H34 6010   2.391   3.107   6.535
  167PEN    H35 6011   2.624   3.172   6.859
  167PEN    H36 6012   2.425   3.091   6.761
  168PEN     C1 6013   2.829   3.493   3.293
  168PEN     C2 6014   2.928   3.550   3.210
  168PEN     C3 6015   2.706   3.444   3.233
  168PEN     C4 6016   2.847   3.483   3.432
  168PEN     C5 6017   2.910   3.560   3.072
  168PEN     H6 6018   3.009   3.582   3.249
  168PEN     C7 6019   2.690   3.456   3.093
  168PEN     C8 6020   2.608   3.388   3.316
  168PEN     C9 6021   2.749   3.427   3.515
  168PEN    H10 6022   2.928   3.514   3.469
  168PEN    C11 6023   3.010   3.619   2.986
  168PEN    C12 6024   2.788   3.513   3.012
  168PEN    H13 6025   2.610   3.424   3.053
  168PEN    H14 6026   2.527   3.357   3.278
  168PEN    C15 6027   2.626   3.378   3.454
  168PEN    C16 6028   2.765   3.415   3.654
  168PEN    C17 6029   2.990   3.628   2.852
  168PEN    H18 6030   3.091   3.651   3.023
  168PEN    C19 6031   2.772   3.525   2.870
  168PEN    C20 6032   2.527   3.321   3.538
  168PEN    C21 6033   2.667   3.359   3.735
  168PEN    H22 6034   2.845   3.447   3.694
  168PEN    C23 6035   2.870   3.580   2.794
  168PEN    H24 6036   3.057   3.668   2.797
  168PEN    H25 6037   2.692   3.494   2.829
  168PEN    H26 6038   2.446   3.289   3.499
  168PEN    C27 6039   2.545   3.311   3.675
  168PEN    C28 6040   2.683   3.346   3.877
  168PEN    H29 6041   2.857   3.587   2.700
  168PEN    C30 6042   2.445   3.252   3.761
  168PEN    C31 6043   2.585   3.291   3.953
  168PEN    H32 6044   2.763   3.377   3.918
  168PEN    C33 6045   2.465   3.243   3.895
  168PEN    H34 6046   2.364   3.220   3.724
  168PEN    H35 6047   2.598   3.284   4.047
  168PEN    H36 6048   2.398   3.203   3.950
  169PEN     C1 6049   2.879   3.821   4.699
  169PEN     C2 6050   2.978   3.878   4.615
  169PEN     C3 6051   2.756   3.772   4.638
  169PEN     C4 6052   2.897   3.810   4.837
  169PEN     C5 6053   2.961   3.888   4.478
  169PEN     H6 6054   3.059   3.910   4.654
  169PEN     C7 6055   2.741   3.784   4.499
  169PEN     C8 6056   2.658   3.716   4.721
  169PEN     C9 6057   2.799   3.755   4.920
  169PEN    H10 6058   2.979   3.842   4.875
  169PEN    C11 6059   3.060   3.946   4.392
  169PEN    C12 6060   2.838   3.840   4.418
  169PEN    H13 6061   2.660   3.752   4.459
  169PEN    H14 6062   2.577   3.684   4.684
  169PEN    C15 6063   2.676   3.706   4.860
  169PEN    C16 6064   2.815   3.743   5.060
  169PEN    C17 6065   3.040   3.956   4.258
  169PEN    H18 6066   3.141   3.979   4.429
  169PEN    C19 6067   2.822   3.853   4.276
  169PEN    C20 6068   2.577   3.649   4.943
  169PEN    C21 6069   2.717   3.686   5.141
  169PEN    H22 6070   2.895   3.774   5.100
  169PEN    C23 6071   2.920   3.908   4.200
  169PEN    H24 6072   3.107   3.995   4.203
  169PEN    H25 6073   2.742   3.822   4.235
  169PEN    H26 6074   2.496   3.617   4.904
  169PEN    C27 6075   2.595   3.639   5.081
  169PEN    C28 6076   2.734   3.674   5.283
  169PEN    H29 6077   2.908   3.914   4.106
  169PEN    C30 6078   2.495   3.580   5.167
  169PEN    C31 6079   2.636   3.619   5.359
  169PEN    H32 6080   2.813   3.704   5.324
  169PEN    C33 6081   2.515   3.570   5.301
  169PEN    H34 6082   2.414   3.548   5.129
  169PEN    H35 6083   2.648   3.612   5.453
  169PEN    H36 6084   2.448   3.531   5.356
  170PEN     C1 6085   2.929   4.148   6.104
  170PEN     C2 6086   3.029   4.205   6.021
  170PEN     C3 6087   2.806   4.099   6.044
  170PEN     C4 6088   2.947   4.138   6.243
  170PEN     C5 6089   3.011   4.216   5.884
  170PEN     H6 6090   3.109   4.238   6.060
  170PEN     C7 6091   2.791   4.111   5.905
  170PEN     C8 6092   2.708   4.044   6.127
  170PEN     C9 6093   2.849   4.082   6.326
  170PEN    H10 6094   3.029   4.170   6.280
  170PEN    C11 6095   3.110   4.274   5.797
  170PEN    C12 6096   2.888   4.168   5.824
  170PEN    H13 6097   2.711   4.080   5.865
  170PEN    H14 6098   2.627   4.012   6.090
  170PEN    C15 6099   2.726   4.034   6.266
  170PEN    C16 6100   2.865   4.070   6.465
  170PEN    C17 6101   3.091   4.284   5.664
  170PEN    H18 6102   3.191   4.307   5.835
  170PEN    C19 6103   2.872   4.180   5.681
  170PEN    C20 6104   2.627   3.976   6.349
  170PEN    C21 6105   2.767   4.014   6.546
  170PEN    H22 6106   2.945   4.102   6.505
  170PEN    C23 6107   2.970   4.236   5.605
  170PEN    H24 6108   3.157   4.323   5.609
  170PEN    H25 6109   2.792   4.150   5.640
  170PEN    H26 6110   2.546   3.944   6.310
  170PEN    C27 6111   2.645   3.966   6.486
  170PEN    C28 6112   2.784   4.001   6.689
  170PEN    H29 6113   2.958   4.242   5.511
  170PEN    C30 6114   2.545   3.908   6.573
  170PEN    C31 6115   2.686   3.946   6.765
  170PEN    H32 6116   2.864   4.032   6.730
  170PEN    C33 6117   2.565   3.898   6.706
  170PEN    H34 6118   2.464   3.875   6.535
  170PEN    H35 6119   2.698   3.940   6.859
  170PEN    H36 6120   2.498   3.859   6.761
  171PEN     C1 6121   2.853   3.933   1.887
  171PEN     C2 6122   2.952   3.990   1.804
  171PEN     C3 6123   2.730   3.884   1.827
  171PEN     C4 6124   2.871   3.923   2.026
  171PEN     C5 6125   2.934   4.000   1.667
  171PEN     H6 6126   3.032   4.022   1.843
  171PEN     C7 6127   2.714   3.896   1.688
  171PEN     C8 6128   2.631   3.829   1.910
  171PEN     C9 6129   2.772   3.867   2.109
  171PEN    H10 6130   2.952   3.955   2.063
  171PEN    C11 6131   3.034   4.059   1.580
  171PEN    C12 6132   2.811   3.953   1.607
  171PEN    H13 6133   2.634   3.864   1.648
  171PEN    H14 6134   2.550   3.797   1.873
  171PEN    C15 6135   2.649   3.818   2.049
  171PEN    C16 6136   2.788   3.855   2.248
  171PEN    C17 6137   3.014   4.069   1.447
  171PEN    H18 6138   3.115   4.091   1.618
  171PEN    C19 6139   2.795   3.965   1.464
  171PEN    C20 6140   2.550   3.761   2.132
  171PEN    C21 6141   2.690   3.799   2.329
  171PEN    H22 6142   2.868   3.887   2.288
  171PEN    C23 6143   2.893   4.020   1.388
  171PEN    H24 6144   3.081   4.108   1.392
  171PEN    H25 6145   2.715   3.935   1.423
  171PEN    H26 6146   2.470   3.729   2.093
  171PEN    C27 6147   2.568   3.751   2.269
  171PEN    C28 6148   2.707   3.786   2.471
  171PEN    H29 6149   2.881   4.027   1.294
  171PEN    C30 6150   2.468   3.693   2.356
  171PEN    C31 6151   2.609   3.731   2.548
  171PEN    H32 6152   2.787   3.817   2.513
  171PEN    C33 6153   2.488   3.683   2.489
  171PEN    H34 6154   2.387   3.660   2.318
  171PEN    H35 6155   2.621   3.725   2.642
  171PEN    H36 6156   2.421   3.644   2.544
  172PEN     C1 6157   2.699   4.146   3.454
  172PEN     C2 6158   2.600   4.089   3.538
  172PEN     C3 6159   2.823   4.195   3.515
  172PEN     C4 6160   2.682   4.156   3.316
  172PEN     C5 6161   2.618   4.079   3.675
  172PEN     H6 6162   2.520   4.057   3.499
  172PEN     C7 6163   2.838   4.183   3.654
  172PEN     C8 6164   2.921   4.251   3.432
  172PEN     C9 6165   2.780   4.212   3.233
  172PEN    H10 6166   2.600   4.125   3.278
  172PEN    C11 6167   2.519   4.020   3.761
  172PEN    C12 6168   2.741   4.126   3.735
  172PEN    H13 6169   2.918   4.215   3.694
  172PEN    H14 6170   3.002   4.282   3.469
  172PEN    C15 6171   2.903   4.261   3.293
  172PEN    C16 6172   2.764   4.224   3.093
  172PEN    C17 6173   2.538   4.010   3.895
  172PEN    H18 6174   2.438   3.988   3.724
  172PEN    C19 6175   2.757   4.114   3.877
  172PEN    C20 6176   3.002   4.318   3.210
  172PEN    C21 6177   2.862   4.280   3.012
  172PEN    H22 6178   2.684   4.192   3.053
  172PEN    C23 6179   2.659   4.059   3.953
  172PEN    H24 6180   2.472   3.971   3.950
  172PEN    H25 6181   2.837   4.144   3.918
  172PEN    H26 6182   3.082   4.350   3.249
  172PEN    C27 6183   2.984   4.328   3.072
  172PEN    C28 6184   2.845   4.293   2.870
  172PEN    H29 6185   2.671   4.052   4.047
  172PEN    C30 6186   3.084   4.387   2.986
  172PEN    C31 6187   2.943   4.348   2.794
  172PEN    H32 6188   2.765   4.262   2.829
  172PEN    C33 6189   3.064   4.396   2.852
  172PEN    H34 6190   3.165   4.419   3.023
  172PEN    H35 6191   2.931   4.355   2.700
  172PEN    H36 6192   3.131   4.436   2.797
  173PEN     C1 6193   2.750   4.474   4.860
  173PEN     C2 6194   2.650   4.417   4.943
  173PEN     C3 6195   2.873   4.523   4.920
  173PEN     C4 6196   2.732   4.484   4.721
  173PEN     C5 6197   2.668   4.406   5.081
  173PEN     H6 6198   2.570   4.384   4.904
  173PEN     C7 6199   2.888   4.511   5.060
  173PEN     C8 6200   2.971   4.578   4.837
  173PEN     C9 6201   2.830   4.540   4.638
  173PEN    H10 6202   2.650   4.452   4.684
  173PEN    C11 6203   2.569   4.348   5.167
  173PEN    C12 6204   2.791   4.454   5.141
  173PEN    H13 6205   2.968   4.542   5.100
  173PEN    H14 6206   3.052   4.610   4.875
  173PEN    C15 6207   2.953   4.588   4.699
  173PEN    C16 6208   2.814   4.552   4.499
  173PEN    C17 6209   2.588   4.338   5.301
  173PEN    H18 6210   2.488   4.315   5.129
  173PEN    C19 6211   2.807   4.442   5.283
  173PEN    C20 6212   3.052   4.646   4.615
  173PEN    C21 6213   2.912   4.608   4.418
  173PEN    H22 6214   2.734   4.520   4.459
  173PEN    C23 6215   2.709   4.386   5.359
  173PEN    H24 6216   2.522   4.299   5.356
  173PEN    H25 6217   2.887   4.472   5.324
  173PEN    H26 6218   3.133   4.678   4.654
  173PEN    C27 6219   3.034   4.656   4.478
  173PEN    C28 6220   2.895   4.621   4.276
  173PEN    H29 6221   2.721   4.380   5.453
  173PEN    C30 6222   3.134   4.714   4.392
  173PEN    C31 6223   2.993   4.676   4.200
  173PEN    H32 6224   2.815   4.590   4.235
  173PEN    C33 6225   3.114   4.724   4.258
  173PEN    H34 6226   3.215   4.747   4.429
  173PEN    H35 6227   2.981   4.682   4.106
  173PEN    H36 6228   3.181   4.763   4.203
  174PEN     C1 6229   2.800   4.801   6.266
  174PEN     C2 6230   2.701   4.744   6.349
  174PEN     C3 6231   2.923   4.850   6.326
  174PEN     C4 6232   2.782   4.812   6.127
  174PEN     C5 6233   2.718   4.734   6.486
  174PEN     H6 6234   2.620   4.712   6.310
  174PEN     C7 6235   2.938   4.838   6.465
  174PEN     C8 6236   3.021   4.906   6.243
  174PEN     C9 6237   2.880   4.867   6.044
  174PEN    H10 6238   2.700   4.780   6.090
  174PEN    C11 6239   2.619   4.676   6.573
  174PEN    C12 6240   2.841   4.782   6.546
  174PEN    H13 6241   3.019   4.870   6.505
  174PEN    H14 6242   3.102   4.938   6.280
  174PEN    C15 6243   3.003   4.916   6.104
  174PEN    C16 6244   2.864   4.879   5.905
  174PEN    C17 6245   2.639   4.666   6.706
  174PEN    H18 6246   2.538   4.643   6.535
  174PEN    C19 6247   2.857   4.769   6.689
  174PEN    C20 6248   3.102   4.973   6.021
  174PEN    C21 6249   2.962   4.936   5.824
  174PEN    H22 6250   2.784   4.848   5.865
  174PEN    C23 6251   2.759   4.714   6.765
  174PEN    H24 6252   2.572   4.627   6.761
  174PEN    H25 6253   2.937   4.800   6.730
  174PEN    H26 6254   3.183   5.005   6.060
  174PEN    C27 6255   3.084   4.983   5.884
  174PEN    C28 6256   2.945   4.948   5.681
  174PEN    H29 6257   2.771   4.708   6.859
  174PEN    C30 6258   3.184   5.042   5.797
  174PEN    C31 6259   3.043   5.003   5.605
  174PEN    H32 6260   2.865   4.918   5.640
  174PEN    C33 6261   3.164   5.052   5.664
  174PEN    H34 6262   3.265   5.074   5.835
  174PEN    H35 6263   3.031   5.010   5.511
  174PEN    H36 6264   3.231   5.091   5.609
  175PEN     C1 6265   2.779   3.165   1.887
  175PEN     C2 6266   2.878   3.222   1.804
  175PEN     C3 6267   2.656   3.116   1.827
  175PEN     C4 6268   2.797   3.155   2.026
  175PEN     C5 6269   2.860   3.232   1.667
  175PEN     H6 6270   2.959   3.255   1.843
  175PEN     C7 6271   2.640   3.128   1.688
  175PEN     C8 6272   2.558   3.061   1.910
  175PEN     C9 6273   2.699   3.099   2.109
  175PEN    H10 6274   2.878   3.187   2.063
  175PEN    C11 6275   2.960   3.291   1.580
  175PEN    C12 6276   2.738   3.185   1.607
  175PEN    H13 6277   2.560   3.097   1.648
  175PEN    H14 6278   2.476   3.029   1.873
  175PEN    C15 6279   2.576   3.051   2.049
  175PEN    C16 6280   2.714   3.087   2.248
  175PEN    C17 6281   2.940   3.301   1.447
  175PEN    H18 6282   3.041   3.323   1.618
  175PEN    C19 6283   2.721   3.197   1.464
  175PEN    C20 6284   2.477   2.993   2.132
  175PEN    C21 6285   2.617   3.031   2.329
  175PEN    H22 6286   2.795   3.119   2.288
  175PEN    C23 6287   2.819   3.253   1.388
  175PEN    H24 6288   3.007   3.340   1.392
  175PEN    H25 6289   2.642   3.167   1.423
  175PEN    H26 6290   2.396   2.961   2.093
  175PEN    C27 6291   2.494   2.983   2.269
  175PEN    C28 6292   2.633   3.018   2.471
  175PEN    H29 6293   2.807   3.259   1.294
  175PEN    C30 6294   2.395   2.925   2.356
  175PEN    C31 6295   2.535   2.963   2.548
  175PEN    H32 6296   2.713   3.049   2.513
  175PEN    C33 6297   2.415   2.915   2.489
  175PEN    H34 6298   2.314   2.892   2.318
  175PEN    H35 6299   2.547   2.957   2.642
  175PEN    H36 6300   2.348   2.876   2.544
  176PEN     C1 6301   3.204   4.257   1.869
  176PEN     C2 6302   3.302   4.256   1.767
  176PEN     C3 6303   3.080   4.330   1.846
  176PEN     C4 6304   3.221   4.189   1.990
  176PEN     C5 6305   3.283   4.322   1.647
  176PEN     H6 6306   3.384   4.210   1.781
  176PEN     C7 6307   3.063   4.398   1.723
  176PEN     C8 6308   2.982   4.330   1.946
  176PEN     C9 6309   3.124   4.189   2.090
  176PEN    H10 6310   3.302   4.142   2.003
  176PEN    C11 6311   3.381   4.321   1.543
  176PEN    C12 6312   3.160   4.395   1.624
  176PEN    H13 6313   2.982   4.446   1.708
  176PEN    H14 6314   2.901   4.378   1.933
  176PEN    C15 6315   2.999   4.262   2.067
  176PEN    C16 6316   3.141   4.122   2.213
  176PEN    C17 6317   3.360   4.385   1.426
  176PEN    H18 6318   3.463   4.274   1.557
  176PEN    C19 6319   3.143   4.461   1.499
  176PEN    C20 6320   2.901   4.263   2.169
  176PEN    C21 6321   3.043   4.125   2.312
  176PEN    H22 6322   3.221   4.073   2.228
  176PEN    C23 6323   3.238   4.457   1.403
  176PEN    H24 6324   3.427   4.383   1.358
  176PEN    H25 6325   3.062   4.509   1.482
  176PEN    H26 6326   2.819   4.310   2.155
  176PEN    C27 6327   2.920   4.197   2.289
  176PEN    C28 6328   3.060   4.059   2.437
  176PEN    H29 6329   3.225   4.501   1.320
  176PEN    C30 6330   2.822   4.199   2.393
  176PEN    C31 6331   2.965   4.063   2.533
  176PEN    H32 6332   3.141   4.010   2.454
  176PEN    C33 6333   2.843   4.134   2.510
  176PEN    H34 6334   2.740   4.246   2.379
  176PEN    H35 6335   2.979   4.018   2.616
  176PEN    H36 6336   2.776   4.137   2.578
  177PEN     C1 6337   3.207   3.704   6.086
  177PEN     C2 6338   3.306   3.704   5.984
  177PEN     C3 6339   3.083   3.777   6.063
  177PEN     C4 6340   3.224   3.636   6.207
  177PEN     C5 6341   3.286   3.770   5.864
  177PEN     H6 6342   3.387   3.657   5.998
  177PEN     C7 6343   3.066   3.845   5.940
  177PEN     C8 6344   2.985   3.778   6.163
  177PEN     C9 6345   3.127   3.637   6.307
  177PEN    H10 6346   3.306   3.589   6.220
  177PEN    C11 6347   3.384   3.768   5.760
  177PEN    C12 6348   3.163   3.842   5.841
  177PEN    H13 6349   2.986   3.894   5.925
  177PEN    H14 6350   2.904   3.825   6.150
  177PEN    C15 6351   3.002   3.710   6.284
  177PEN    C16 6352   3.144   3.569   6.430
  177PEN    C17 6353   3.363   3.832   5.643
  177PEN    H18 6354   3.466   3.721   5.774
  177PEN    C19 6355   3.146   3.908   5.716
  177PEN    C20 6356   2.904   3.710   6.386
  177PEN    C21 6357   3.046   3.572   6.529
  177PEN    H22 6358   3.224   3.520   6.445
  177PEN    C23 6359   3.242   3.904   5.620
  177PEN    H24 6360   3.430   3.830   5.575
  177PEN    H25 6361   3.066   3.956   5.699
  177PEN    H26 6362   2.822   3.757   6.372
  177PEN    C27 6363   2.923   3.644   6.506
  177PEN    C28 6364   3.064   3.506   6.654
  177PEN    H29 6365   3.228   3.948   5.537
  177PEN    C30 6366   2.825   3.646   6.610
  177PEN    C31 6367   2.968   3.510   6.750
  177PEN    H32 6368   3.144   3.458   6.671
  177PEN    C33 6369   2.846   3.582   6.727
  177PEN    H34 6370   2.743   3.693   6.596
  177PEN    H35 6371   2.982   3.466   6.833
  177PEN    H36 6372   2.779   3.584   6.795
  178PEN     C1 6373   2.852   2.727   2.067
  178PEN     C2 6374   2.753   2.727   2.169
  178PEN     C3 6375   2.976   2.654   2.090
  178PEN     C4 6376   2.835   2.795   1.946
  178PEN     C5 6377   2.773   2.661   2.289
  178PEN     H6 6378   2.672   2.774   2.155
  178PEN     C7 6379   2.993   2.586   2.213
  178PEN     C8 6380   3.074   2.653   1.990
  178PEN     C9 6381   2.932   2.794   1.846
  178PEN    H10 6382   2.753   2.842   1.933
  178PEN    C11 6383   2.675   2.663   2.393
  178PEN    C12 6384   2.896   2.589   2.312
  178PEN    H13 6385   3.073   2.537   2.228
  178PEN    H14 6386   3.155   2.606   2.003
  178PEN    C15 6387   3.057   2.721   1.869
  178PEN    C16 6388   2.915   2.862   1.723
  178PEN    C17 6389   2.696   2.599   2.510
  178PEN    H18 6390   2.593   2.710   2.379
  178PEN    C19 6391   2.913   2.523   2.437
  178PEN    C20 6392   3.155   2.721   1.767
  178PEN    C21 6393   3.013   2.859   1.624
  178PEN    H22 6394   2.835   2.911   1.708
  178PEN    C23 6395   2.817   2.527   2.533
  178PEN    H24 6396   2.629   2.601   2.578
  178PEN    H25 6397   2.994   2.475   2.454
  178PEN    H26 6398   3.237   2.674   1.781
  178PEN    C27 6399   3.136   2.787   1.647
  178PEN    C28 6400   2.995   2.925   1.499
  178PEN    H29 6401   2.831   2.483   2.616
  178PEN    C30 6402   3.234   2.785   1.543
  178PEN    C31 6403   3.091   2.921   1.403
  178PEN    H32 6404   2.915   2.973   1.482
  178PEN    C33 6405   3.213   2.849   1.426
  178PEN    H34 6406   3.316   2.738   1.557
  178PEN    H35 6407   3.077   2.965   1.320
  178PEN    H36 6408   3.280   2.847   1.358
  179PEN     C1 6409   3.107   3.049   3.274
  179PEN     C2 6410   3.205   3.048   3.172
  179PEN     C3 6411   2.983   3.122   3.251
  179PEN     C4 6412   3.124   2.981   3.396
  179PEN     C5 6413   3.186   3.114   3.052
  179PEN     H6 6414   3.287   3.002   3.187
  179PEN     C7 6415   2.965   3.190   3.129
  179PEN     C8 6416   2.885   3.122   3.352
  179PEN     C9 6417   3.026   2.981   3.496
  179PEN    H10 6418   3.205   2.934   3.409
  179PEN    C11 6419   3.284   3.113   2.949
  179PEN    C12 6420   3.063   3.187   3.030
  179PEN    H13 6421   2.885   3.238   3.114
  179PEN    H14 6422   2.804   3.170   3.338
  179PEN    C15 6423   2.902   3.054   3.473
  179PEN    C16 6424   3.043   2.914   3.619
  179PEN    C17 6425   3.263   3.177   2.831
  179PEN    H18 6426   3.366   3.066   2.962
  179PEN    C19 6427   3.046   3.253   2.904
  179PEN    C20 6428   2.804   3.055   3.575
  179PEN    C21 6429   2.946   2.916   3.717
  179PEN    H22 6430   3.124   2.865   3.634
  179PEN    C23 6431   3.141   3.248   2.809
  179PEN    H24 6432   3.330   3.175   2.764
  179PEN    H25 6433   2.965   3.301   2.888
  179PEN    H26 6434   2.722   3.102   3.560
  179PEN    C27 6435   2.823   2.989   3.695
  179PEN    C28 6436   2.963   2.850   3.843
  179PEN    H29 6437   3.127   3.293   2.726
  179PEN    C30 6438   2.725   2.991   3.799
  179PEN    C31 6439   2.868   2.855   3.939
  179PEN    H32 6440   3.044   2.802   3.859
  179PEN    C33 6441   2.746   2.926   3.916
  179PEN    H34 6442   2.643   3.037   3.785
  179PEN    H35 6443   2.881   2.810   4.022
  179PEN    H36 6444   2.679   2.929   3.983
  180PEN     C1 6445   3.060   2.169   6.086
  180PEN     C2 6446   3.158   2.168   5.984
  180PEN     C3 6447   2.936   2.241   6.063
  180PEN     C4 6448   3.077   2.101   6.207
  180PEN     C5 6449   3.139   2.234   5.864
  180PEN     H6 6450   3.240   2.121   5.998
  180PEN     C7 6451   2.918   2.309   5.940
  180PEN     C8 6452   2.838   2.242   6.163
  180PEN     C9 6453   2.979   2.101   6.307
  180PEN    H10 6454   3.158   2.053   6.220
  180PEN    C11 6455   3.237   2.232   5.760
  180PEN    C12 6456   3.016   2.306   5.841
  180PEN    H13 6457   2.838   2.358   5.925
  180PEN    H14 6458   2.757   2.289   6.150
  180PEN    C15 6459   2.855   2.174   6.284
  180PEN    C16 6460   2.996   2.033   6.430
  180PEN    C17 6461   3.216   2.297   5.643
  180PEN    H18 6462   3.319   2.185   5.774
  180PEN    C19 6463   2.999   2.372   5.716
  180PEN    C20 6464   2.757   2.174   6.386
  180PEN    C21 6465   2.899   2.036   6.529
  180PEN    H22 6466   3.077   1.985   6.445
  180PEN    C23 6467   3.094   2.368   5.620
  180PEN    H24 6468   3.283   2.294   5.575
  180PEN    H25 6469   2.918   2.421   5.699
  180PEN    H26 6470   2.675   2.221   6.372
  180PEN    C27 6471   2.776   2.109   6.506
  180PEN    C28 6472   2.916   1.970   6.654
  180PEN    H29 6473   3.081   2.413   5.537
  180PEN    C30 6474   2.678   2.110   6.610
  180PEN    C31 6475   2.821   1.974   6.750
  180PEN    H32 6476   2.997   1.922   6.671
  180PEN    C33 6477   2.699   2.046   6.727
  180PEN    H34 6478   2.596   2.157   6.596
  180PEN    H35 6479   2.834   1.930   6.833
  180PEN    H36 6480   2.632   2.048   6.795
  181PEN     C1 6481   2.705   1.191   2.067
  181PEN     C2 6482   2.606   1.191   2.169
  181PEN     C3 6483   2.829   1.118   2.090
  181PEN     C4 6484   2.688   1.259   1.946
  181PEN     C5 6485   2.626   1.125   2.289
  181PEN     H6 6486   2.525   1.238   2.155
  181PEN     C7 6487   2.846   1.050   2.213
  181PEN     C8 6488   2.927   1.118   1.990
  181PEN     C9 6489   2.785   1.258   1.846
  181PEN    H10 6490   2.606   1.306   1.933
  181PEN    C11 6491   2.527   1.127   2.393
  181PEN    C12 6492   2.749   1.053   2.312
  181PEN    H13 6493   2.926   1.002   2.228
  181PEN    H14 6494   3.008   1.070   2.003
  181PEN    C15 6495   2.910   1.186   1.869
  181PEN    C16 6496   2.768   1.326   1.723
  181PEN    C17 6497   2.548   1.063   2.510
  181PEN    H18 6498   2.446   1.174   2.379
  181PEN    C19 6499   2.766   0.987   2.437
  181PEN    C20 6500   3.008   1.185   1.767
  181PEN    C21 6501   2.865   1.323   1.624
  181PEN    H22 6502   2.688   1.375   1.708
  181PEN    C23 6503   2.670   0.991   2.533
  181PEN    H24 6504   2.482   1.065   2.578
  181PEN    H25 6505   2.846   0.939   2.454
  181PEN    H26 6506   3.089   1.138   1.781
  181PEN    C27 6507   2.988   1.251   1.647
  181PEN    C28 6508   2.848   1.389   1.499
  181PEN    H29 6509   2.684   0.947   2.616
  181PEN    C30 6510   3.087   1.249   1.543
  181PEN    C31 6511   2.944   1.385   1.403
  181PEN    H32 6512   2.768   1.437   1.482
  181PEN    C33 6513   3.066   1.314   1.426
  181PEN    H34 6514   3.168   1.202   1.557
  181PEN    H35 6515   2.930   1.430   1.320
  181PEN    H36 6516   3.132   1.311   1.358
  182PEN     C1 6517   2.960   1.513   3.274
  182PEN     C2 6518   3.058   1.513   3.172
  182PEN     C3 6519   2.835   1.586   3.251
  182PEN     C4 6520   2.977   1.445   3.396
  182PEN     C5 6521   3.039   1.579   3.052
  182PEN     H6 6522   3.140   1.466   3.187
  182PEN     C7 6523   2.818   1.654   3.129
  182PEN     C8 6524   2.738   1.587   3.352
  182PEN     C9 6525   2.879   1.446   3.496
  182PEN    H10 6526   3.058   1.398   3.409
  182PEN    C11 6527   3.137   1.577   2.949
  182PEN    C12 6528   2.916   1.651   3.030
  182PEN    H13 6529   2.738   1.703   3.114
  182PEN    H14 6530   2.656   1.634   3.338
  182PEN    C15 6531   2.755   1.519   3.473
  182PEN    C16 6532   2.896   1.378   3.619
  182PEN    C17 6533   3.116   1.641   2.831
  182PEN    H18 6534   3.218   1.530   2.962
  182PEN    C19 6535   2.898   1.717   2.904
  182PEN    C20 6536   2.656   1.519   3.575
  182PEN    C21 6537   2.799   1.381   3.717
  182PEN    H22 6538   2.976   1.329   3.634
  182PEN    C23 6539   2.994   1.713   2.809
  182PEN    H24 6540   3.183   1.639   2.764
  182PEN    H25 6541   2.818   1.765   2.888
  182PEN    H26 6542   2.575   1.566   3.560
  182PEN    C27 6543   2.676   1.453   3.695
  182PEN    C28 6544   2.816   1.315   3.843
  182PEN    H29 6545   2.980   1.757   2.726
  182PEN    C30 6546   2.577   1.455   3.799
  182PEN    C31 6547   2.720   1.319   3.939
  182PEN    H32 6548   2.896   1.267   3.859
  182PEN    C33 6549   2.599   1.391   3.916
  182PEN    H34 6550   2.496   1.502   3.785
  182PEN    H35 6551   2.734   1.275   4.022
  182PEN    H36 6552   2.532   1.393   3.983
  183PEN     C1 6553   2.805   1.846   4.879
  183PEN     C2 6554   2.706   1.847   4.980
  183PEN     C3 6555   2.929   1.773   4.902
  183PEN     C4 6556   2.788   1.914   4.757
  183PEN     C5 6557   2.726   1.781   5.101
  183PEN     H6 6558   2.625   1.894   4.966
  183PEN     C7 6559   2.946   1.706   5.024
  183PEN     C8 6560   3.027   1.773   4.801
  183PEN     C9 6561   2.885   1.914   4.657
  183PEN    H10 6562   2.706   1.962   4.744
  183PEN    C11 6563   2.628   1.783   5.204
  183PEN    C12 6564   2.849   1.708   5.123
  183PEN    H13 6565   3.026   1.657   5.039
  183PEN    H14 6566   3.108   1.726   4.814
  183PEN    C15 6567   3.010   1.841   4.680
  183PEN    C16 6568   2.868   1.981   4.534
  183PEN    C17 6569   2.649   1.718   5.321
  183PEN    H18 6570   2.546   1.829   5.191
  183PEN    C19 6571   2.866   1.642   5.249
  183PEN    C20 6572   3.108   1.840   4.578
  183PEN    C21 6573   2.966   1.979   4.435
  183PEN    H22 6574   2.788   2.030   4.519
  183PEN    C23 6575   2.771   1.647   5.344
  183PEN    H24 6576   2.582   1.721   5.389
  183PEN    H25 6577   2.947   1.594   5.265
  183PEN    H26 6578   3.190   1.794   4.593
  183PEN    C27 6579   3.089   1.906   4.458
  183PEN    C28 6580   2.948   2.045   4.310
  183PEN    H29 6581   2.784   1.602   5.427
  183PEN    C30 6582   3.187   1.905   4.354
  183PEN    C31 6583   3.044   2.040   4.214
  183PEN    H32 6584   2.868   2.093   4.294
  183PEN    C33 6585   3.166   1.969   4.237
  183PEN    H34 6586   3.269   1.858   4.368
  183PEN    H35 6587   3.030   2.085   4.131
  183PEN    H36 6588   3.233   1.967   4.170
  184PEN     C1 6589   2.879   2.614   4.879
  184PEN     C2 6590   2.780   2.615   4.980
  184PEN     C3 6591   3.003   2.541   4.902
  184PEN     C4 6592   2.861   2.682   4.757
  184PEN     C5 6593   2.800   2.549   5.101
  184PEN     H6 6594   2.699   2.661   4.966
  184PEN     C7 6595   3.020   2.474   5.024
  184PEN     C8 6596   3.100   2.541   4.801
  184PEN     C9 6597   2.959   2.682   4.657
  184PEN    H10 6598   2.780   2.729   4.744
  184PEN    C11 6599   2.701   2.550   5.204
  184PEN    C12 6600   2.923   2.476   5.123
  184PEN    H13 6601   3.100   2.425   5.039
  184PEN    H14 6602   3.182   2.493   4.814
  184PEN    C15 6603   3.083   2.609   4.680
  184PEN    C16 6604   2.942   2.749   4.534
  184PEN    C17 6605   2.722   2.486   5.321
  184PEN    H18 6606   2.620   2.597   5.191
  184PEN    C19 6607   2.940   2.410   5.249
  184PEN    C20 6608   3.182   2.608   4.578
  184PEN    C21 6609   3.039   2.747   4.435
  184PEN    H22 6610   2.862   2.798   4.519
  184PEN    C23 6611   2.844   2.415   5.344
  184PEN    H24 6612   2.656   2.488   5.389
  184PEN    H25 6613   3.020   2.362   5.265
  184PEN    H26 6614   3.263   2.561   4.593
  184PEN    C27 6615   3.162   2.674   4.458
  184PEN    C28 6616   3.022   2.813   4.310
  184PEN    H29 6617   2.858   2.370   5.427
  184PEN    C30 6618   3.261   2.672   4.354
  184PEN    C31 6619   3.118   2.808   4.214
  184PEN    H32 6620   2.942   2.861   4.294
  184PEN    C33 6621   3.240   2.737   4.237
  184PEN    H34 6622   3.342   2.626   4.368
  184PEN    H35 6623   3.104   2.853   4.131
  184PEN    H36 6624   3.306   2.735   4.170
  185PEN     C1 6625   2.778   1.959   2.067
  185PEN     C2 6626   2.680   1.959   2.169
  185PEN     C3 6627   2.903   1.886   2.090
  185PEN     C4 6628   2.761   2.027   1.946
  185PEN     C5 6629   2.699   1.893   2.289
  185PEN     H6 6630   2.598   2.006   2.155
  185PEN     C7 6631   2.920   1.818   2.213
  185PEN     C8 6632   3.000   1.885   1.990
  185PEN     C9 6633   2.859   2.026   1.846
  185PEN    H10 6634   2.680   2.074   1.933
  185PEN    C11 6635   2.601   1.895   2.393
  185PEN    C12 6636   2.822   1.821   2.312
  185PEN    H13 6637   3.000   1.769   2.228
  185PEN    H14 6638   3.082   1.838   2.003
  185PEN    C15 6639   2.983   1.953   1.869
  185PEN    C16 6640   2.842   2.094   1.723
  185PEN    C17 6641   2.622   1.831   2.510
  185PEN    H18 6642   2.519   1.942   2.379
  185PEN    C19 6643   2.840   1.755   2.437
  185PEN    C20 6644   3.082   1.953   1.767
  185PEN    C21 6645   2.939   2.091   1.624
  185PEN    H22 6646   2.762   2.143   1.708
  185PEN    C23 6647   2.744   1.759   2.533
  185PEN    H24 6648   2.555   1.833   2.578
  185PEN    H25 6649   2.920   1.707   2.454
  185PEN    H26 6650   3.163   1.906   1.781
  185PEN    C27 6651   3.062   2.019   1.647
  185PEN    C28 6652   2.922   2.157   1.499
  185PEN    H29 6653   2.758   1.715   2.616
  185PEN    C30 6654   3.160   2.017   1.543
  185PEN    C31 6655   3.018   2.153   1.403
  185PEN    H32 6656   2.842   2.205   1.482
  185PEN    C33 6657   3.139   2.081   1.426
  185PEN    H34 6658   3.242   1.970   1.557
  185PEN    H35 6659   3.004   2.197   1.320
  185PEN    H36 6660   3.206   2.079   1.358
  186PEN     C1 6661   3.134   2.936   6.086
  186PEN     C2 6662   3.232   2.936   5.984
  186PEN     C3 6663   3.009   3.009   6.063
  186PEN     C4 6664   3.151   2.868   6.207
  186PEN     C5 6665   3.212   3.002   5.864
  186PEN     H6 6666   3.313   2.889   5.998
  186PEN     C7 6667   2.992   3.077   5.940
  186PEN     C8 6668   2.912   3.010   6.163
  186PEN     C9 6669   3.053   2.869   6.307
  186PEN    H10 6670   3.232   2.821   6.220
  186PEN    C11 6671   3.311   3.000   5.760
  186PEN    C12 6672   3.089   3.074   5.841
  186PEN    H13 6673   2.912   3.126   5.925
  186PEN    H14 6674   2.830   3.057   6.150
  186PEN    C15 6675   2.929   2.942   6.284
  186PEN    C16 6676   3.070   2.801   6.430
  186PEN    C17 6677   3.290   3.065   5.643
  186PEN    H18 6678   3.392   2.953   5.774
  186PEN    C19 6679   3.072   3.140   5.716
  186PEN    C20 6680   2.830   2.942   6.386
  186PEN    C21 6681   2.973   2.804   6.529
  186PEN    H22 6682   3.150   2.753   6.445
  186PEN    C23 6683   3.168   3.136   5.620
  186PEN    H24 6684   3.356   3.062   5.575
  186PEN    H25 6685   2.992   3.188   5.699
  186PEN    H26 6686   2.749   2.989   6.372
  186PEN    C27 6687   2.850   2.876   6.506
  186PEN    C28 6688   2.990   2.738   6.654
  186PEN    H29 6689   3.154   3.180   5.537
  186PEN    C30 6690   2.751   2.878   6.610
  186PEN    C31 6691   2.894   2.742   6.750
  186PEN    H32 6692   3.070   2.690   6.671
  186PEN    C33 6693   2.772   2.814   6.727
  186PEN    H34 6694   2.670   2.925   6.596
  186PEN    H35 6695   2.908   2.698   6.833
  186PEN    H36 6696   2.706   2.816   6.795
  187PEN     C1 6697   2.933   1.626   0.463
  187PEN     C2 6698   3.031   1.625   0.361
  187PEN     C3 6699   2.809   1.699   0.440
  187PEN     C4 6700   2.950   1.558   0.584
  187PEN     C5 6701   3.012   1.691   0.241
  187PEN     H6 6702   3.113   1.578   0.376
  187PEN     C7 6703   2.792   1.766   0.317
  187PEN     C8 6704   2.711   1.699   0.540
  187PEN     C9 6705   2.853   1.558   0.685
  187PEN    H10 6706   3.031   1.510   0.597
  187PEN    C11 6707   3.110   1.689   0.137
  187PEN    C12 6708   2.889   1.764   0.218
  187PEN    H13 6709   2.711   1.815   0.302
  187PEN    H14 6710   2.630   1.746   0.527
  187PEN    C15 6711   2.728   1.631   0.662
  187PEN    C16 6712   2.870   1.491   0.807
  187PEN    C17 6713   3.089   1.754   0.020
  187PEN    H18 6714   3.192   1.643   0.151
  187PEN    C19 6715   2.872   1.830   0.093
  187PEN    C20 6716   2.630   1.632   0.763
  187PEN    C21 6717   2.772   1.493   0.906
  187PEN    H22 6718   2.950   1.442   0.822
  187PEN    C23 6719   2.967   1.825  -0.003
  187PEN    H24 6720   3.156   1.751  -0.048
  187PEN    H25 6721   2.791   1.878   0.076
  187PEN    H26 6722   2.548   1.678   0.749
  187PEN    C27 6723   2.649   1.566   0.883
  187PEN    C28 6724   2.790   1.427   1.031
  187PEN    H29 6725   2.954   1.870  -0.086
  187PEN    C30 6726   2.551   1.567   0.987
  187PEN    C31 6727   2.694   1.432   1.127
  187PEN    H32 6728   2.870   1.379   1.048
  187PEN    C33 6729   2.572   1.503   1.104
  187PEN    H34 6730   2.469   1.614   0.974
  187PEN    H35 6731   2.708   1.387   1.210
  187PEN    H36 6732   2.505   1.505   1.172
  188PEN     C1 6733   3.007   2.394   0.463
  188PEN     C2 6734   3.105   2.393   0.361
  188PEN     C3 6735   2.882   2.466   0.440
  188PEN     C4 6736   3.024   2.326   0.584
  188PEN     C5 6737   3.086   2.459   0.241
  188PEN     H6 6738   3.187   2.346   0.376
  188PEN     C7 6739   2.865   2.534   0.317
  188PEN     C8 6740   2.785   2.467   0.540
  188PEN     C9 6741   2.926   2.326   0.685
  188PEN    H10 6742   3.105   2.278   0.597
  188PEN    C11 6743   3.184   2.457   0.137
  188PEN    C12 6744   2.962   2.531   0.218
  188PEN    H13 6745   2.785   2.583   0.302
  188PEN    H14 6746   2.703   2.514   0.527
  188PEN    C15 6747   2.802   2.399   0.662
  188PEN    C16 6748   2.943   2.258   0.807
  188PEN    C17 6749   3.163   2.522   0.020
  188PEN    H18 6750   3.265   2.410   0.151
  188PEN    C19 6751   2.945   2.597   0.093
  188PEN    C20 6752   2.703   2.399   0.763
  188PEN    C21 6753   2.846   2.261   0.906
  188PEN    H22 6754   3.023   2.210   0.822
  188PEN    C23 6755   3.041   2.593  -0.003
  188PEN    H24 6756   3.229   2.519  -0.048
  188PEN    H25 6757   2.865   2.646   0.076
  188PEN    H26 6758   2.622   2.446   0.749
  188PEN    C27 6759   2.723   2.334   0.883
  188PEN    C28 6760   2.863   2.195   1.031
  188PEN    H29 6761   3.027   2.638  -0.086
  188PEN    C30 6762   2.624   2.335   0.987
  188PEN    C31 6763   2.767   2.199   1.127
  188PEN    H32 6764   2.943   2.147   1.048
  188PEN    C33 6765   2.646   2.271   1.104
  188PEN    H34 6766   2.543   2.382   0.974
  188PEN    H35 6767   2.781   2.155   1.210
  188PEN    H36 6768   2.579   2.273   1.172
  189PEN     C1 6769   2.952   3.382   4.879
  189PEN     C2 6770   2.854   3.383   4.980
  189PEN     C3 6771   3.077   3.309   4.902
  189PEN     C4 6772   2.935   3.450   4.757
  189PEN     C5 6773   2.873   3.317   5.101
  189PEN     H6 6774   2.772   3.429   4.966
  189PEN     C7 6775   3.094   3.241   5.024
  189PEN     C8 6776   3.174   3.309   4.801
  189PEN     C9 6777   3.033   3.450   4.657
  189PEN    H10 6778   2.854   3.497   4.744
  189PEN    C11 6779   2.775   3.318   5.204
  189PEN    C12 6780   2.996   3.244   5.123
  189PEN    H13 6781   3.174   3.193   5.039
  189PEN    H14 6782   3.255   3.261   4.814
  189PEN    C15 6783   3.157   3.377   4.680
  189PEN    C16 6784   3.016   3.517   4.534
  189PEN    C17 6785   2.796   3.254   5.321
  189PEN    H18 6786   2.693   3.365   5.191
  189PEN    C19 6787   3.013   3.178   5.249
  189PEN    C20 6788   3.255   3.376   4.578
  189PEN    C21 6789   3.113   3.514   4.435
  189PEN    H22 6790   2.935   3.566   4.519
  189PEN    C23 6791   2.918   3.182   5.344
  189PEN    H24 6792   2.729   3.256   5.389
  189PEN    H25 6793   3.094   3.130   5.265
  189PEN    H26 6794   3.337   3.329   4.593
  189PEN    C27 6795   3.236   3.442   4.458
  189PEN    C28 6796   3.096   3.580   4.310
  189PEN    H29 6797   2.932   3.138   5.427
  189PEN    C30 6798   3.334   3.440   4.354
  189PEN    C31 6799   3.191   3.576   4.214
  189PEN    H32 6800   3.015   3.629   4.294
  189PEN    C33 6801   3.313   3.505   4.237
  189PEN    H34 6802   3.416   3.393   4.368
  189PEN    H35 6803   3.178   3.621   4.131
  189PEN    H36 6804   3.380   3.502   4.170
  190PEN     C1 6805   2.925   3.495   2.067
  190PEN     C2 6806   2.827   3.495   2.169
  190PEN     C3 6807   3.050   3.422   2.090
  190PEN     C4 6808   2.908   3.563   1.946
  190PEN     C5 6809   2.847   3.429   2.289
  190PEN     H6 6810   2.746   3.542   2.155
  190PEN     C7 6811   3.067   3.354   2.213
  190PEN     C8 6812   3.147   3.421   1.990
  190PEN     C9 6813   3.006   3.562   1.846
  190PEN    H10 6814   2.827   3.610   1.933
  190PEN    C11 6815   2.748   3.431   2.393
  190PEN    C12 6816   2.970   3.357   2.312
  190PEN    H13 6817   3.147   3.305   2.228
  190PEN    H14 6818   3.229   3.374   2.003
  190PEN    C15 6819   3.130   3.489   1.869
  190PEN    C16 6820   2.989   3.630   1.723
  190PEN    C17 6821   2.769   3.366   2.510
  190PEN    H18 6822   2.667   3.478   2.379
  190PEN    C19 6823   2.987   3.291   2.437
  190PEN    C20 6824   3.229   3.489   1.767
  190PEN    C21 6825   3.086   3.627   1.624
  190PEN    H22 6826   2.909   3.678   1.708
  190PEN    C23 6827   2.891   3.295   2.533
  190PEN    H24 6828   2.703   3.369   2.578
  190PEN    H25 6829   3.067   3.243   2.454
  190PEN    H26 6830   3.310   3.442   1.781
  190PEN    C27 6831   3.209   3.555   1.647
  190PEN    C28 6832   3.069   3.693   1.499
  190PEN    H29 6833   2.905   3.250   2.616
  190PEN    C30 6834   3.308   3.553   1.543
  190PEN    C31 6835   3.165   3.689   1.403
  190PEN    H32 6836   2.989   3.741   1.482
  190PEN    C33 6837   3.287   3.617   1.426
  190PEN    H34 6838   3.389   3.506   1.557
  190PEN    H35 6839   3.151   3.733   1.320
  190PEN    H36 6840   3.353   3.615   1.358
  191PEN     C1 6841   3.181   3.817   3.274
  191PEN     C2 6842   3.279   3.816   3.172
  191PEN     C3 6843   3.056   3.890   3.251
  191PEN     C4 6844   3.198   3.749   3.396
  191PEN     C5 6845   3.259   3.882   3.052
  191PEN     H6 6846   3.360   3.770   3.187
  191PEN     C7 6847   3.039   3.957   3.129
  191PEN     C8 6848   2.959   3.890   3.352
  191PEN     C9 6849   3.100   3.749   3.496
  191PEN    H10 6850   3.279   3.702   3.409
  191PEN    C11 6851   3.358   3.881   2.949
  191PEN    C12 6852   3.136   3.955   3.030
  191PEN    H13 6853   2.959   4.006   3.114
  191PEN    H14 6854   2.877   3.937   3.338
  191PEN    C15 6855   2.976   3.822   3.473
  191PEN    C16 6856   3.117   3.682   3.619
  191PEN    C17 6857   3.337   3.945   2.831
  191PEN    H18 6858   3.439   3.834   2.962
  191PEN    C19 6859   3.119   4.021   2.904
  191PEN    C20 6860   2.877   3.823   3.575
  191PEN    C21 6861   3.020   3.684   3.717
  191PEN    H22 6862   3.197   3.633   3.634
  191PEN    C23 6863   3.215   4.016   2.809
  191PEN    H24 6864   3.403   3.943   2.764
  191PEN    H25 6865   3.039   4.069   2.888
  191PEN    H26 6866   2.796   3.869   3.560
  191PEN    C27 6867   2.897   3.757   3.695
  191PEN    C28 6868   3.037   3.618   3.843
  191PEN    H29 6869   3.201   4.061   2.726
  191PEN    C30 6870   2.798   3.758   3.799
  191PEN    C31 6871   2.941   3.623   3.939
  191PEN    H32 6872   3.117   3.570   3.859
  191PEN    C33 6873   2.819   3.694   3.916
  191PEN    H34 6874   2.717   3.805   3.785
  191PEN    H35 6875   2.955   3.578   4.022
  191PEN    H36 6876   2.753   3.696   3.983
  192PEN     C1 6877   3.281   4.472   6.086
  192PEN     C2 6878   3.379   4.472   5.984
  192PEN     C3 6879   3.156   4.545   6.063
  192PEN     C4 6880   3.298   4.404   6.207
  192PEN     C5 6881   3.360   4.538   5.864
  192PEN     H6 6882   3.461   4.425   5.998
  192PEN     C7 6883   3.139   4.613   5.940
  192PEN     C8 6884   3.059   4.546   6.163
  192PEN     C9 6885   3.200   4.405   6.307
  192PEN    H10 6886   3.379   4.357   6.220
  192PEN    C11 6887   3.458   4.536   5.760
  192PEN    C12 6888   3.237   4.610   5.841
  192PEN    H13 6889   3.059   4.661   5.925
  192PEN    H14 6890   2.977   4.593   6.150
  192PEN    C15 6891   3.076   4.478   6.284
  192PEN    C16 6892   3.217   4.337   6.430
  192PEN    C17 6893   3.437   4.600   5.643
  192PEN    H18 6894   3.540   4.489   5.774
  192PEN    C19 6895   3.219   4.676   5.716
  192PEN    C20 6896   2.977   4.478   6.386
  192PEN    C21 6897   3.120   4.340   6.529
  192PEN    H22 6898   3.297   4.288   6.445
  192PEN    C23 6899   3.315   4.672   5.620
  192PEN    H24 6900   3.504   4.598   5.575
  192PEN    H25 6901   3.139   4.724   5.699
  192PEN    H26 6902   2.896   4.525   6.372
  192PEN    C27 6903   2.997   4.412   6.506
  192PEN    C28 6904   3.137   4.274   6.654
  192PEN    H29 6905   3.301   4.716   5.537
  192PEN    C30 6906   2.899   4.414   6.610
  192PEN    C31 6907   3.041   4.278   6.750
  192PEN    H32 6908   3.217   4.226   6.671
  192PEN    C33 6909   2.920   4.349   6.727
  192PEN    H34 6910   2.817   4.461   6.596
  192PEN    H35 6911   3.055   4.234   6.833
  192PEN    H36 6912   2.853   4.352   6.795
  193PEN     C1 6913   3.026   4.150   4.879
  193PEN     C2 6914   2.927   4.150   4.980
  193PEN     C3 6915   3.150   4.077   4.902
  193PEN     C4 6916   3.009   4.218   4.757
  193PEN     C5 6917   2.947   4.084   5.101
  193PEN     H6 6918   2.846   4.197   4.966
  193PEN     C7 6919   3.167   4.009   5.024
  193PEN     C8 6920   3.248   4.076   4.801
  193PEN     C9 6921   3.106   4.217   4.657
  193PEN    H10 6922   2.927   4.265   4.744
  193PEN    C11 6923   2.848   4.086   5.204
  193PEN    C12 6924   3.070   4.012   5.123
  193PEN    H13 6925   3.247   3.961   5.039
  193PEN    H14 6926   3.329   4.029   4.814
  193PEN    C15 6927   3.231   4.144   4.680
  193PEN    C16 6928   3.089   4.285   4.534
  193PEN    C17 6929   2.870   4.022   5.321
  193PEN    H18 6930   2.767   4.133   5.191
  193PEN    C19 6931   3.087   3.946   5.249
  193PEN    C20 6932   3.329   4.144   4.578
  193PEN    C21 6933   3.186   4.282   4.435
  193PEN    H22 6934   3.009   4.334   4.519
  193PEN    C23 6935   2.991   3.950   5.344
  193PEN    H24 6936   2.803   4.024   5.389
  193PEN    H25 6937   3.167   3.898   5.265
  193PEN    H26 6938   3.411   4.097   4.593
  193PEN    C27 6939   3.310   4.210   4.458
  193PEN    C28 6940   3.169   4.348   4.310
  193PEN    H29 6941   3.005   3.906   5.427
  193PEN    C30 6942   3.408   4.208   4.354
  193PEN    C31 6943   3.265   4.344   4.214
  193PEN    H32 6944   3.089   4.396   4.294
  193PEN    C33 6945   3.387   4.273   4.237
  193PEN    H34 6946   3.489   4.161   4.368
  193PEN    H35 6947   3.251   4.389   4.131
  193PEN    H36 6948   3.453   4.270   4.170
  194PEN     C1 6949   3.033   2.281   3.274
  194PEN     C2 6950   3.132   2.281   3.172
  194PEN     C3 6951   2.909   2.354   3.251
  194PEN     C4 6952   3.050   2.213   3.396
  194PEN     C5 6953   3.112   2.346   3.052
  194PEN     H6 6954   3.213   2.234   3.187
  194PEN     C7 6955   2.892   2.422   3.129
  194PEN     C8 6956   2.811   2.354   3.352
  194PEN     C9 6957   2.953   2.214   3.496
  194PEN    H10 6958   3.132   2.166   3.409
  194PEN    C11 6959   3.211   2.345   2.949
  194PEN    C12 6960   2.989   2.419   3.030
  194PEN    H13 6961   2.812   2.470   3.114
  194PEN    H14 6962   2.730   2.402   3.338
  194PEN    C15 6963   2.828   2.286   3.473
  194PEN    C16 6964   2.970   2.146   3.619
  194PEN    C17 6965   3.189   2.409   2.831
  194PEN    H18 6966   3.292   2.298   2.962
  194PEN    C19 6967   2.972   2.485   2.904
  194PEN    C20 6968   2.730   2.287   3.575
  194PEN    C21 6969   2.873   2.149   3.717
  194PEN    H22 6970   3.050   2.097   3.634
  194PEN    C23 6971   3.068   2.481   2.809
  194PEN    H24 6972   3.256   2.407   2.764
  194PEN    H25 6973   2.892   2.533   2.888
  194PEN    H26 6974   2.649   2.334   3.560
  194PEN    C27 6975   2.750   2.221   3.695
  194PEN    C28 6976   2.890   2.083   3.843
  194PEN    H29 6977   3.054   2.525   2.726
  194PEN    C30 6978   2.651   2.223   3.799
  194PEN    C31 6979   2.794   2.087   3.939
  194PEN    H32 6980   2.970   2.035   3.859
  194PEN    C33 6981   2.672   2.158   3.916
  194PEN    H34 6982   2.570   2.270   3.785
  194PEN    H35 6983   2.808   2.042   4.022
  194PEN    H36 6984   2.606   2.161   3.983
  195PEN     C1 6985   3.254   4.585   3.274
  195PEN     C2 6986   3.353   4.584   3.172
  195PEN     C3 6987   3.130   4.658   3.251
  195PEN     C4 6988   3.271   4.517   3.396
  195PEN     C5 6989   3.333   4.650   3.052
  195PEN     H6 6990   3.434   4.537   3.187
  195PEN     C7 6991   3.113   4.725   3.129
  195PEN     C8 6992   3.032   4.658   3.352
  195PEN     C9 6993   3.174   4.517   3.496
  195PEN    H10 6994   3.353   4.469   3.409
  195PEN    C11 6995   3.431   4.648   2.949
  195PEN    C12 6996   3.210   4.723   3.030
  195PEN    H13 6997   3.033   4.774   3.114
  195PEN    H14 6998   2.951   4.705   3.338
  195PEN    C15 6999   3.049   4.590   3.473
  195PEN    C16 7000   3.191   4.449   3.619
  195PEN    C17 7001   3.410   4.713   2.831
  195PEN    H18 7002   3.513   4.601   2.962
  195PEN    C19 7003   3.193   4.788   2.904
  195PEN    C20 7004   2.951   4.591   3.575
  195PEN    C21 7005   3.093   4.452   3.717
  195PEN    H22 7006   3.271   4.401   3.634
  195PEN    C23 7007   3.289   4.784   2.809
  195PEN    H24 7008   3.477   4.710   2.764
  195PEN    H25 7009   3.113   4.837   2.888
  195PEN    H26 7010   2.869   4.637   3.560
  195PEN    C27 7011   2.970   4.525   3.695
  195PEN    C28 7012   3.111   4.386   3.843
  195PEN    H29 7013   3.275   4.829   2.726
  195PEN    C30 7014   2.872   4.526   3.799
  195PEN    C31 7015   3.015   4.391   3.939
  195PEN    H32 7016   3.191   4.338   3.859
  195PEN    C33 7017   2.893   4.462   3.916
  195PEN    H34 7018   2.790   4.573   3.785
  195PEN    H35 7019   3.029   4.346   4.022
  195PEN    H36 7020   2.826   4.464   3.983
  196PEN     C1 7021   3.099   4.918   4.879
  196PEN     C2 7022   3.001   4.918   4.980
  196PEN     C3 7023   3.224   4.845   4.902
  196PEN     C4 7024   3.082   4.986   4.757
  196PEN     C5 7025   3.020   4.852   5.101
  196PEN     H6 7026   2.919   4.965   4.966
  196PEN     C7 7027   3.241   4.777   5.024
  196PEN     C8 7028   3.321   4.844   4.801
  196PEN     C9 7029   3.180   4.985   4.657
  196PEN    H10 7030   3.001   5.033   4.744
  196PEN    C11 7031   2.922   4.854   5.204
  196PEN    C12 7032   3.144   4.780   5.123
  196PEN    H13 7033   3.321   4.728   5.039
  196PEN    H14 7034   3.403   4.797   4.814
  196PEN    C15 7035   3.304   4.912   4.680
  196PEN    C16 7036   3.163   5.053   4.534
  196PEN    C17 7037   2.943   4.790   5.321
  196PEN    H18 7038   2.841   4.901   5.191
  196PEN    C19 7039   3.161   4.714   5.249
  196PEN    C20 7040   3.403   4.912   4.578
  196PEN    C21 7041   3.260   5.050   4.435
  196PEN    H22 7042   3.083   5.102   4.519
  196PEN    C23 7043   3.065   4.718   5.344
  196PEN    H24 7044   2.877   4.792   5.389
  196PEN    H25 7045   3.241   4.666   5.265
  196PEN    H26 7046   3.484   4.865   4.593
  196PEN    C27 7047   3.383   4.978   4.458
  196PEN    C28 7048   3.243   5.116   4.310
  196PEN    H29 7049   3.079   4.674   5.427
  196PEN    C30 7050   3.482   4.976   4.354
  196PEN    C31 7051   3.339   5.112   4.214
  196PEN    H32 7052   3.163   5.164   4.294
  196PEN    C33 7053   3.460   5.040   4.237
  196PEN    H34 7054   3.563   4.929   4.368
  196PEN    H35 7055   3.325   5.156   4.131
  196PEN    H36 7056   3.527   5.038   4.170
  197PEN     C1 7057   3.354   5.240   6.086
  197PEN     C2 7058   3.453   5.240   5.984
  197PEN     C3 7059   3.230   5.313   6.063
  197PEN     C4 7060   3.371   5.172   6.207
  197PEN     C5 7061   3.433   5.305   5.864
  197PEN     H6 7062   3.534   5.193   5.998
  197PEN     C7 7063   3.213   5.381   5.940
  197PEN     C8 7064   3.132   5.313   6.163
  197PEN     C9 7065   3.274   5.173   6.307
  197PEN    H10 7066   3.453   5.125   6.220
  197PEN    C11 7067   3.532   5.304   5.760
  197PEN    C12 7068   3.310   5.378   5.841
  197PEN    H13 7069   3.133   5.429   5.925
  197PEN    H14 7070   3.051   5.361   6.150
  197PEN    C15 7071   3.149   5.245   6.284
  197PEN    C16 7072   3.291   5.105   6.430
  197PEN    C17 7073   3.511   5.368   5.643
  197PEN    H18 7074   3.613   5.257   5.774
  197PEN    C19 7075   3.293   5.444   5.716
  197PEN    C20 7076   3.051   5.246   6.386
  197PEN    C21 7077   3.194   5.108   6.529
  197PEN    H22 7078   3.371   5.056   6.445
  197PEN    C23 7079   3.389   5.440   5.620
  197PEN    H24 7080   3.577   5.366   5.575
  197PEN    H25 7081   3.213   5.492   5.699
  197PEN    H26 7082   2.970   5.293   6.372
  197PEN    C27 7083   3.071   5.180   6.506
  197PEN    C28 7084   3.211   5.042   6.654
  197PEN    H29 7085   3.375   5.484   5.537
  197PEN    C30 7086   2.972   5.182   6.610
  197PEN    C31 7087   3.115   5.046   6.750
  197PEN    H32 7088   3.291   4.993   6.671
  197PEN    C33 7089   2.993   5.117   6.727
  197PEN    H34 7090   2.891   5.229   6.596
  197PEN    H35 7091   3.129   5.001   6.833
  197PEN    H36 7092   2.927   5.120   6.795
  198PEN     C1 7093   2.859   0.858   0.463
  198PEN     C2 7094   2.958   0.857   0.361
  198PEN     C3 7095   2.735   0.931   0.440
  198PEN     C4 7096   2.877   0.790   0.584
  198PEN     C5 7097   2.938   0.923   0.241
  198PEN     H6 7098   3.039   0.811   0.376
  198PEN     C7 7099   2.718   0.998   0.317
  198PEN     C8 7100   2.637   0.931   0.540
  198PEN     C9 7101   2.779   0.790   0.685
  198PEN    H10 7102   2.958   0.743   0.597
  198PEN    C11 7103   3.037   0.922   0.137
  198PEN    C12 7104   2.815   0.996   0.218
  198PEN    H13 7105   2.638   1.047   0.302
  198PEN    H14 7106   2.556   0.979   0.527
  198PEN    C15 7107   2.655   0.863   0.662
  198PEN    C16 7108   2.796   0.723   0.807
  198PEN    C17 7109   3.016   0.986   0.020
  198PEN    H18 7110   3.118   0.875   0.151
  198PEN    C19 7111   2.798   1.062   0.093
  198PEN    C20 7112   2.556   0.864   0.763
  198PEN    C21 7113   2.699   0.725   0.906
  198PEN    H22 7114   2.876   0.674   0.822
  198PEN    C23 7115   2.894   1.057  -0.003
  198PEN    H24 7116   3.082   0.984  -0.048
  198PEN    H25 7117   2.718   1.110   0.076
  198PEN    H26 7118   2.475   0.911   0.749
  198PEN    C27 7119   2.576   0.798   0.883
  198PEN    C28 7120   2.716   0.659   1.031
  198PEN    H29 7121   2.880   1.102  -0.086
  198PEN    C30 7122   2.477   0.799   0.987
  198PEN    C31 7123   2.620   0.664   1.127
  198PEN    H32 7124   2.796   0.611   1.048
  198PEN    C33 7125   2.498   0.735   1.104
  198PEN    H34 7126   2.396   0.846   0.974
  198PEN    H35 7127   2.634   0.619   1.210
  198PEN    H36 7128   2.432   0.737   1.172
  199PEN     C1 7129   3.154   3.929   0.463
  199PEN     C2 7130   3.252   3.929   0.361
  199PEN     C3 7131   3.029   4.002   0.440
  199PEN     C4 7132   3.171   3.861   0.584
  199PEN     C5 7133   3.233   3.995   0.241
  199PEN     H6 7134   3.334   3.882   0.376
  199PEN     C7 7135   3.012   4.070   0.317
  199PEN     C8 7136   2.932   4.003   0.540
  199PEN     C9 7137   3.073   3.862   0.685
  199PEN    H10 7138   3.252   3.814   0.597
  199PEN    C11 7139   3.331   3.993   0.137
  199PEN    C12 7140   3.110   4.067   0.218
  199PEN    H13 7141   2.932   4.119   0.302
  199PEN    H14 7142   2.851   4.050   0.527
  199PEN    C15 7143   2.949   3.935   0.662
  199PEN    C16 7144   3.090   3.794   0.807
  199PEN    C17 7145   3.310   4.057   0.020
  199PEN    H18 7146   3.413   3.946   0.151
  199PEN    C19 7147   3.093   4.133   0.093
  199PEN    C20 7148   2.851   3.935   0.763
  199PEN    C21 7149   2.993   3.797   0.906
  199PEN    H22 7150   3.171   3.745   0.822
  199PEN    C23 7151   3.188   4.129  -0.003
  199PEN    H24 7152   3.377   4.055  -0.048
  199PEN    H25 7153   3.012   4.181   0.076
  199PEN    H26 7154   2.769   3.982   0.749
  199PEN    C27 7155   2.870   3.869   0.883
  199PEN    C28 7156   3.010   3.731   1.031
  199PEN    H29 7157   3.174   4.173  -0.086
  199PEN    C30 7158   2.772   3.871   0.987
  199PEN    C31 7159   2.915   3.735   1.127
  199PEN    H32 7160   3.091   3.683   1.048
  199PEN    C33 7161   2.793   3.807   1.104
  199PEN    H34 7162   2.690   3.918   0.974
  199PEN    H35 7163   2.928   3.691   1.210
  199PEN    H36 7164   2.726   3.809   1.172
  200PEN     C1 7165   3.080   3.161   0.463
  200PEN     C2 7166   3.179   3.161   0.361
  200PEN     C3 7167   2.956   3.234   0.440
  200PEN     C4 7168   3.097   3.093   0.584
  200PEN     C5 7169   3.159   3.227   0.241
  200PEN     H6 7170   3.260   3.114   0.376
  200PEN     C7 7171   2.939   3.302   0.317
  200PEN     C8 7172   2.858   3.235   0.540
  200PEN     C9 7173   3.000   3.094   0.685
  200PEN    H10 7174   3.179   3.046   0.597
  200PEN    C11 7175   3.258   3.225   0.137
  200PEN    C12 7176   3.036   3.299   0.218
  200PEN    H13 7177   2.859   3.351   0.302
  200PEN    H14 7178   2.777   3.282   0.527
  200PEN    C15 7179   2.875   3.167   0.662
  200PEN    C16 7180   3.017   3.026   0.807
  200PEN    C17 7181   3.236   3.290   0.020
  200PEN    H18 7182   3.339   3.178   0.151
  200PEN    C19 7183   3.019   3.365   0.093
  200PEN    C20 7184   2.777   3.167   0.763
  200PEN    C21 7185   2.920   3.029   0.906
  200PEN    H22 7186   3.097   2.977   0.822
  200PEN    C23 7187   3.115   3.361  -0.003
  200PEN    H24 7188   3.303   3.287  -0.048
  200PEN    H25 7189   2.939   3.413   0.076
  200PEN    H26 7190   2.695   3.214   0.749
  200PEN    C27 7191   2.796   3.101   0.883
  200PEN    C28 7192   2.937   2.963   1.031
  200PEN    H29 7193   3.101   3.405  -0.086
  200PEN    C30 7194   2.698   3.103   0.987
  200PEN    C31 7195   2.841   2.967   1.127
  200PEN    H32 7196   3.017   2.915   1.048
  200PEN    C33 7197   2.719   3.039   1.104
  200PEN    H34 7198   2.617   3.150   0.974
  200PEN    H35 7199   2.855   2.923   1.210
  200PEN    H36 7200   2.653   3.041   1.172
  201PEN     C1 7201   3.083   1.402   4.860
  201PEN     C2 7202   2.984   1.345   4.943
  201PEN     C3 7203   3.206   1.451   4.920
  201PEN     C4 7204   3.065   1.412   4.721
  201PEN     C5 7205   3.001   1.335   5.081
  201PEN     H6 7206   2.903   1.313   4.904
  201PEN     C7 7207   3.221   1.439   5.060
  201PEN     C8 7208   3.304   1.507   4.837
  201PEN     C9 7209   3.163   1.468   4.638
  201PEN    H10 7210   2.983   1.381   4.684
  201PEN    C11 7211   2.902   1.276   5.167
  201PEN    C12 7212   3.124   1.383   5.141
  201PEN    H13 7213   3.302   1.471   5.100
  201PEN    H14 7214   3.385   1.539   4.875
  201PEN    C15 7215   3.286   1.517   4.699
  201PEN    C16 7216   3.147   1.480   4.499
  201PEN    C17 7217   2.922   1.267   5.301
  201PEN    H18 7218   2.821   1.244   5.129
  201PEN    C19 7219   3.140   1.370   5.283
  201PEN    C20 7220   3.385   1.574   4.615
  201PEN    C21 7221   3.245   1.537   4.418
  201PEN    H22 7222   3.067   1.448   4.459
  201PEN    C23 7223   3.042   1.315   5.359
  201PEN    H24 7224   2.855   1.228   5.356
  201PEN    H25 7225   3.220   1.401   5.324
  201PEN    H26 7226   3.466   1.606   4.654
  201PEN    C27 7227   3.367   1.584   4.478
  201PEN    C28 7228   3.228   1.549   4.276
  201PEN    H29 7229   3.054   1.308   5.453
  201PEN    C30 7230   3.467   1.643   4.392
  201PEN    C31 7231   3.326   1.604   4.200
  201PEN    H32 7232   3.148   1.519   4.235
  201PEN    C33 7233   3.447   1.653   4.258
  201PEN    H34 7234   3.548   1.675   4.429
  201PEN    H35 7235   3.314   1.611   4.106
  201PEN    H36 7236   3.514   1.692   4.203
  202PEN     C1 7237   3.186   0.862   1.887
  202PEN     C2 7238   3.285   0.919   1.804
  202PEN     C3 7239   3.063   0.813   1.827
  202PEN     C4 7240   3.204   0.851   2.026
  202PEN     C5 7241   3.267   0.929   1.667
  202PEN     H6 7242   3.365   0.951   1.843
  202PEN     C7 7243   3.047   0.825   1.688
  202PEN     C8 7244   2.965   0.757   1.910
  202PEN     C9 7245   3.106   0.796   2.109
  202PEN    H10 7246   3.285   0.883   2.063
  202PEN    C11 7247   3.367   0.988   1.580
  202PEN    C12 7248   3.145   0.881   1.607
  202PEN    H13 7249   2.967   0.793   1.648
  202PEN    H14 7250   2.883   0.725   1.873
  202PEN    C15 7251   2.982   0.747   2.049
  202PEN    C16 7252   3.121   0.784   2.248
  202PEN    C17 7253   3.347   0.997   1.447
  202PEN    H18 7254   3.448   1.020   1.618
  202PEN    C19 7255   3.128   0.894   1.464
  202PEN    C20 7256   2.883   0.690   2.132
  202PEN    C21 7257   3.024   0.727   2.329
  202PEN    H22 7258   3.201   0.816   2.288
  202PEN    C23 7259   3.226   0.949   1.388
  202PEN    H24 7260   3.414   1.036   1.392
  202PEN    H25 7261   3.048   0.863   1.423
  202PEN    H26 7262   2.803   0.658   2.093
  202PEN    C27 7263   2.901   0.680   2.269
  202PEN    C28 7264   3.040   0.715   2.471
  202PEN    H29 7265   3.214   0.955   1.294
  202PEN    C30 7266   2.802   0.621   2.356
  202PEN    C31 7267   2.942   0.660   2.548
  202PEN    H32 7268   3.120   0.745   2.513
  202PEN    C33 7269   2.821   0.611   2.489
  202PEN    H34 7270   2.721   0.589   2.318
  202PEN    H35 7271   2.954   0.653   2.642
  202PEN    H36 7272   2.754   0.572   2.544
  203PEN     C1 7273   3.236   1.189   3.293
  203PEN     C2 7274   3.335   1.246   3.210
  203PEN     C3 7275   3.113   1.141   3.233
  203PEN     C4 7276   3.254   1.179   3.432
  203PEN     C5 7277   3.317   1.257   3.072
  203PEN     H6 7278   3.416   1.279   3.249
  203PEN     C7 7279   3.097   1.152   3.093
  203PEN     C8 7280   3.015   1.085   3.316
  203PEN     C9 7281   3.156   1.123   3.515
  203PEN    H10 7282   3.335   1.211   3.469
  203PEN    C11 7283   3.417   1.315   2.986
  203PEN    C12 7284   3.195   1.209   3.012
  203PEN    H13 7285   3.017   1.121   3.053
  203PEN    H14 7286   2.933   1.053   3.278
  203PEN    C15 7287   3.033   1.075   3.454
  203PEN    C16 7288   3.171   1.111   3.654
  203PEN    C17 7289   3.397   1.325   2.852
  203PEN    H18 7290   3.498   1.348   3.023
  203PEN    C19 7291   3.178   1.222   2.870
  203PEN    C20 7292   2.933   1.017   3.538
  203PEN    C21 7293   3.074   1.055   3.735
  203PEN    H22 7294   3.251   1.143   3.694
  203PEN    C23 7295   3.276   1.277   2.794
  203PEN    H24 7296   3.464   1.364   2.797
  203PEN    H25 7297   3.098   1.191   2.829
  203PEN    H26 7298   2.853   0.985   3.499
  203PEN    C27 7299   2.951   1.007   3.675
  203PEN    C28 7300   3.090   1.042   3.877
  203PEN    H29 7301   3.264   1.283   2.700
  203PEN    C30 7302   2.852   0.949   3.761
  203PEN    C31 7303   2.992   0.987   3.953
  203PEN    H32 7304   3.170   1.073   3.918
  203PEN    C33 7305   2.871   0.939   3.895
  203PEN    H34 7306   2.771   0.916   3.724
  203PEN    H35 7307   3.004   0.981   4.047
  203PEN    H36 7308   2.805   0.900   3.950
  204PEN     C1 7309   3.133   1.730   6.266
  204PEN     C2 7310   3.034   1.673   6.349
  204PEN     C3 7311   3.256   1.779   6.326
  204PEN     C4 7312   3.115   1.740   6.127
  204PEN     C5 7313   3.051   1.663   6.486
  204PEN     H6 7314   2.953   1.641   6.310
  204PEN     C7 7315   3.272   1.767   6.465
  204PEN     C8 7316   3.354   1.835   6.243
  204PEN     C9 7317   3.213   1.796   6.044
  204PEN    H10 7318   3.034   1.708   6.090
  204PEN    C11 7319   2.952   1.604   6.573
  204PEN    C12 7320   3.174   1.710   6.546
  204PEN    H13 7321   3.352   1.799   6.505
  204PEN    H14 7322   3.435   1.866   6.280
  204PEN    C15 7323   3.336   1.845   6.104
  204PEN    C16 7324   3.197   1.808   5.905
  204PEN    C17 7325   2.972   1.594   6.706
  204PEN    H18 7326   2.871   1.572   6.535
  204PEN    C19 7327   3.190   1.698   6.689
  204PEN    C20 7328   3.435   1.902   6.021
  204PEN    C21 7329   3.295   1.864   5.824
  204PEN    H22 7330   3.117   1.776   5.865
  204PEN    C23 7331   3.092   1.643   6.765
  204PEN    H24 7332   2.905   1.555   6.761
  204PEN    H25 7333   3.270   1.728   6.730
  204PEN    H26 7334   3.516   1.934   6.060
  204PEN    C27 7335   3.417   1.912   5.884
  204PEN    C28 7336   3.279   1.877   5.681
  204PEN    H29 7337   3.105   1.636   6.859
  204PEN    C30 7338   3.517   1.971   5.797
  204PEN    C31 7339   3.376   1.932   5.605
  204PEN    H32 7340   3.199   1.846   5.640
  204PEN    C33 7341   3.497   1.980   5.664
  204PEN    H34 7342   3.598   2.003   5.835
  204PEN    H35 7343   3.364   1.939   5.511
  204PEN    H36 7344   3.564   2.019   5.609
  205PEN     C1 7345   3.410   2.613   6.104
  205PEN     C2 7346   3.509   2.670   6.021
  205PEN     C3 7347   3.287   2.564   6.044
  205PEN     C4 7348   3.428   2.602   6.243
  205PEN     C5 7349   3.491   2.680   5.884
  205PEN     H6 7350   3.589   2.702   6.060
  205PEN     C7 7351   3.271   2.576   5.905
  205PEN     C8 7352   3.188   2.508   6.127
  205PEN     C9 7353   3.330   2.547   6.326
  205PEN    H10 7354   3.509   2.634   6.280
  205PEN    C11 7355   3.591   2.738   5.797
  205PEN    C12 7356   3.369   2.632   5.824
  205PEN    H13 7357   3.191   2.544   5.865
  205PEN    H14 7358   3.107   2.476   6.090
  205PEN    C15 7359   3.206   2.498   6.266
  205PEN    C16 7360   3.345   2.535   6.465
  205PEN    C17 7361   3.571   2.748   5.664
  205PEN    H18 7362   3.672   2.771   5.835
  205PEN    C19 7363   3.352   2.645   5.681
  205PEN    C20 7364   3.107   2.441   6.349
  205PEN    C21 7365   3.248   2.478   6.546
  205PEN    H22 7366   3.425   2.566   6.505
  205PEN    C23 7367   3.450   2.700   5.605
  205PEN    H24 7368   3.638   2.787   5.609
  205PEN    H25 7369   3.272   2.614   5.640
  205PEN    H26 7370   3.027   2.409   6.310
  205PEN    C27 7371   3.125   2.431   6.486
  205PEN    C28 7372   3.264   2.466   6.689
  205PEN    H29 7373   3.438   2.706   5.511
  205PEN    C30 7374   3.026   2.372   6.573
  205PEN    C31 7375   3.166   2.411   6.765
  205PEN    H32 7376   3.344   2.496   6.730
  205PEN    C33 7377   3.045   2.362   6.706
  205PEN    H34 7378   2.945   2.340   6.535
  205PEN    H35 7379   3.178   2.404   6.859
  205PEN    H36 7380   2.978   2.323   6.761
  206PEN     C1 7381   3.056   1.515   2.049
  206PEN     C2 7382   2.957   1.458   2.132
  206PEN     C3 7383   3.179   1.564   2.109
  206PEN     C4 7384   3.038   1.525   1.910
  206PEN     C5 7385   2.975   1.448   2.269
  206PEN     H6 7386   2.876   1.426   2.093
  206PEN     C7 7387   3.195   1.552   2.248
  206PEN     C8 7388   3.277   1.619   2.026
  206PEN     C9 7389   3.136   1.581   1.827
  206PEN    H10 7390   2.957   1.493   1.873
  206PEN    C11 7391   2.875   1.389   2.356
  206PEN    C12 7392   3.097   1.495   2.329
  206PEN    H13 7393   3.275   1.583   2.288
  206PEN    H14 7394   3.359   1.651   2.063
  206PEN    C15 7395   3.259   1.630   1.887
  206PEN    C16 7396   3.121   1.593   1.688
  206PEN    C17 7397   2.895   1.379   2.489
  206PEN    H18 7398   2.794   1.357   2.318
  206PEN    C19 7399   3.114   1.483   2.471
  206PEN    C20 7400   3.359   1.687   1.804
  206PEN    C21 7401   3.218   1.649   1.607
  206PEN    H22 7402   3.040   1.561   1.648
  206PEN    C23 7403   3.016   1.427   2.548
  206PEN    H24 7404   2.828   1.340   2.544
  206PEN    H25 7405   3.194   1.513   2.513
  206PEN    H26 7406   3.439   1.719   1.843
  206PEN    C27 7407   3.341   1.697   1.667
  206PEN    C28 7408   3.202   1.662   1.464
  206PEN    H29 7409   3.028   1.421   2.642
  206PEN    C30 7410   3.440   1.755   1.580
  206PEN    C31 7411   3.300   1.717   1.388
  206PEN    H32 7412   3.122   1.631   1.423
  206PEN    C33 7413   3.420   1.765   1.447
  206PEN    H34 7414   3.521   1.788   1.618
  206PEN    H35 7415   3.288   1.723   1.294
  206PEN    H36 7416   3.487   1.804   1.392
  207PEN     C1 7417   3.309   1.957   3.293
  207PEN     C2 7418   3.409   2.014   3.210
  207PEN     C3 7419   3.186   1.908   3.233
  207PEN     C4 7420   3.327   1.947   3.432
  207PEN     C5 7421   3.391   2.024   3.072
  207PEN     H6 7422   3.489   2.046   3.249
  207PEN     C7 7423   3.171   1.920   3.093
  207PEN     C8 7424   3.088   1.853   3.316
  207PEN     C9 7425   3.229   1.891   3.515
  207PEN    H10 7426   3.409   1.979   3.469
  207PEN    C11 7427   3.490   2.083   2.986
  207PEN    C12 7428   3.268   1.977   3.012
  207PEN    H13 7429   3.091   1.889   3.053
  207PEN    H14 7430   3.007   1.821   3.278
  207PEN    C15 7431   3.106   1.842   3.454
  207PEN    C16 7432   3.245   1.879   3.654
  207PEN    C17 7433   3.471   2.093   2.852
  207PEN    H18 7434   3.571   2.115   3.023
  207PEN    C19 7435   3.252   1.989   2.870
  207PEN    C20 7436   3.007   1.785   3.538
  207PEN    C21 7437   3.147   1.823   3.735
  207PEN    H22 7438   3.325   1.911   3.694
  207PEN    C23 7439   3.350   2.045   2.794
  207PEN    H24 7440   3.537   2.132   2.797
  207PEN    H25 7441   3.172   1.959   2.829
  207PEN    H26 7442   2.926   1.753   3.499
  207PEN    C27 7443   3.025   1.775   3.675
  207PEN    C28 7444   3.164   1.810   3.877
  207PEN    H29 7445   3.338   2.051   2.700
  207PEN    C30 7446   2.925   1.717   3.761
  207PEN    C31 7447   3.066   1.755   3.953
  207PEN    H32 7448   3.244   1.841   3.918
  207PEN    C33 7449   2.945   1.707   3.895
  207PEN    H34 7450   2.844   1.684   3.724
  207PEN    H35 7451   3.078   1.749   4.047
  207PEN    H36 7452   2.878   1.668   3.950
  208PEN     C1 7453   3.360   2.285   4.699
  208PEN     C2 7454   3.459   2.342   4.615
  208PEN     C3 7455   3.236   2.236   4.638
  208PEN     C4 7456   3.378   2.275   4.837
  208PEN     C5 7457   3.441   2.352   4.478
  208PEN     H6 7458   3.539   2.374   4.654
  208PEN     C7 7459   3.221   2.248   4.499
  208PEN     C8 7460   3.138   2.180   4.721
  208PEN     C9 7461   3.279   2.219   4.920
  208PEN    H10 7462   3.459   2.306   4.875
  208PEN    C11 7463   3.540   2.411   4.392
  208PEN    C12 7464   3.318   2.305   4.418
  208PEN    H13 7465   3.141   2.216   4.459
  208PEN    H14 7466   3.057   2.149   4.684
  208PEN    C15 7467   3.156   2.170   4.860
  208PEN    C16 7468   3.295   2.207   5.060
  208PEN    C17 7469   3.521   2.420   4.258
  208PEN    H18 7470   3.621   2.443   4.429
  208PEN    C19 7471   3.302   2.317   4.276
  208PEN    C20 7472   3.057   2.113   4.943
  208PEN    C21 7473   3.197   2.150   5.141
  208PEN    H22 7474   3.375   2.239   5.100
  208PEN    C23 7475   3.400   2.372   4.200
  208PEN    H24 7476   3.588   2.460   4.203
  208PEN    H25 7477   3.222   2.286   4.235
  208PEN    H26 7478   2.977   2.081   4.904
  208PEN    C27 7479   3.075   2.103   5.081
  208PEN    C28 7480   3.214   2.138   5.283
  208PEN    H29 7481   3.388   2.379   4.106
  208PEN    C30 7482   2.975   2.044   5.167
  208PEN    C31 7483   3.116   2.083   5.359
  208PEN    H32 7484   3.294   2.169   5.324
  208PEN    C33 7485   2.995   2.035   5.301
  208PEN    H34 7486   2.894   2.012   5.129
  208PEN    H35 7487   3.128   2.076   5.453
  208PEN    H36 7488   2.928   1.995   5.356
  209PEN     C1 7489   3.333   2.397   1.887
  209PEN     C2 7490   3.432   2.455   1.804
  209PEN     C3 7491   3.210   2.349   1.827
  209PEN     C4 7492   3.351   2.387   2.026
  209PEN     C5 7493   3.414   2.465   1.667
  209PEN     H6 7494   3.513   2.487   1.843
  209PEN     C7 7495   3.194   2.361   1.688
  209PEN     C8 7496   3.112   2.293   1.910
  209PEN     C9 7497   3.253   2.331   2.109
  209PEN    H10 7498   3.432   2.419   2.063
  209PEN    C11 7499   3.514   2.523   1.580
  209PEN    C12 7500   3.292   2.417   1.607
  209PEN    H13 7501   3.114   2.329   1.648
  209PEN    H14 7502   3.030   2.261   1.873
  209PEN    C15 7503   3.130   2.283   2.049
  209PEN    C16 7504   3.268   2.320   2.248
  209PEN    C17 7505   3.494   2.533   1.447
  209PEN    H18 7506   3.595   2.556   1.618
  209PEN    C19 7507   3.275   2.430   1.464
  209PEN    C20 7508   3.030   2.225   2.132
  209PEN    C21 7509   3.171   2.263   2.329
  209PEN    H22 7510   3.349   2.351   2.288
  209PEN    C23 7511   3.373   2.485   1.388
  209PEN    H24 7512   3.561   2.572   1.392
  209PEN    H25 7513   3.195   2.399   1.423
  209PEN    H26 7514   2.950   2.193   2.093
  209PEN    C27 7515   3.048   2.215   2.269
  209PEN    C28 7516   3.187   2.250   2.471
  209PEN    H29 7517   3.361   2.491   1.294
  209PEN    C30 7518   2.949   2.157   2.356
  209PEN    C31 7519   3.089   2.195   2.548
  209PEN    H32 7520   3.267   2.281   2.513
  209PEN    C33 7521   2.969   2.147   2.489
  209PEN    H34 7522   2.868   2.124   2.318
  209PEN    H35 7523   3.101   2.189   2.642
  209PEN    H36 7524   2.902   2.108   2.544
  210PEN     C1 7525   3.383   2.725   3.293
  210PEN     C2 7526   3.482   2.782   3.210
  210PEN     C3 7527   3.260   2.676   3.233
  210PEN     C4 7528   3.401   2.715   3.432
  210PEN     C5 7529   3.464   2.792   3.072
  210PEN     H6 7530   3.563   2.814   3.249
  210PEN     C7 7531   3.244   2.688   3.093
  210PEN     C8 7532   3.162   2.621   3.316
  210PEN     C9 7533   3.303   2.659   3.515
  210PEN    H10 7534   3.482   2.747   3.469
  210PEN    C11 7535   3.564   2.851   2.986
  210PEN    C12 7536   3.342   2.745   3.012
  210PEN    H13 7537   3.164   2.656   3.053
  210PEN    H14 7538   3.081   2.589   3.278
  210PEN    C15 7539   3.180   2.610   3.454
  210PEN    C16 7540   3.319   2.647   3.654
  210PEN    C17 7541   3.544   2.861   2.852
  210PEN    H18 7542   3.645   2.883   3.023
  210PEN    C19 7543   3.326   2.757   2.870
  210PEN    C20 7544   3.081   2.553   3.538
  210PEN    C21 7545   3.221   2.591   3.735
  210PEN    H22 7546   3.399   2.679   3.694
  210PEN    C23 7547   3.423   2.812   2.794
  210PEN    H24 7548   3.611   2.900   2.797
  210PEN    H25 7549   3.246   2.727   2.829
  210PEN    H26 7550   3.000   2.521   3.499
  210PEN    C27 7551   3.098   2.543   3.675
  210PEN    C28 7552   3.237   2.578   3.877
  210PEN    H29 7553   3.411   2.819   2.700
  210PEN    C30 7554   2.999   2.484   3.761
  210PEN    C31 7555   3.139   2.523   3.953
  210PEN    H32 7556   3.317   2.609   3.918
  210PEN    C33 7557   3.019   2.475   3.895
  210PEN    H34 7558   2.918   2.452   3.724
  210PEN    H35 7559   3.152   2.517   4.047
  210PEN    H36 7560   2.952   2.436   3.950
  211PEN     C1 7561   3.080   1.955   0.643
  211PEN     C2 7562   2.980   1.898   0.726
  211PEN     C3 7563   3.203   2.004   0.703
  211PEN     C4 7564   3.062   1.965   0.504
  211PEN     C5 7565   2.998   1.888   0.864
  211PEN     H6 7566   2.900   1.866   0.687
  211PEN     C7 7567   3.218   1.992   0.843
  211PEN     C8 7568   3.301   2.059   0.620
  211PEN     C9 7569   3.160   2.021   0.421
  211PEN    H10 7570   2.980   1.933   0.467
  211PEN    C11 7571   2.899   1.829   0.950
  211PEN    C12 7572   3.121   1.935   0.924
  211PEN    H13 7573   3.298   2.024   0.883
  211PEN    H14 7574   3.382   2.091   0.658
  211PEN    C15 7575   3.283   2.070   0.482
  211PEN    C16 7576   3.144   2.033   0.282
  211PEN    C17 7577   2.918   1.819   1.083
  211PEN    H18 7578   2.818   1.797   0.912
  211PEN    C19 7579   3.137   1.923   1.066
  211PEN    C20 7580   3.382   2.127   0.398
  211PEN    C21 7581   3.242   2.089   0.201
  211PEN    H22 7582   3.064   2.001   0.242
  211PEN    C23 7583   3.039   1.868   1.142
  211PEN    H24 7584   2.852   1.780   1.138
  211PEN    H25 7585   3.217   1.953   1.107
  211PEN    H26 7586   3.463   2.159   0.437
  211PEN    C27 7587   3.364   2.137   0.261
  211PEN    C28 7588   3.225   2.102   0.059
  211PEN    H29 7589   3.051   1.861   1.236
  211PEN    C30 7590   3.464   2.196   0.175
  211PEN    C31 7591   3.323   2.157  -0.017
  211PEN    H32 7592   3.145   2.071   0.018
  211PEN    C33 7593   3.444   2.205   0.041
  211PEN    H34 7594   3.545   2.228   0.212
  211PEN    H35 7595   3.311   2.163  -0.111
  211PEN    H36 7596   3.511   2.244  -0.014
  212PEN     C1 7597   3.230   2.938   4.860
  212PEN     C2 7598   3.131   2.881   4.943
  212PEN     C3 7599   3.353   2.987   4.920
  212PEN     C4 7600   3.212   2.948   4.721
  212PEN     C5 7601   3.149   2.871   5.081
  212PEN     H6 7602   3.050   2.849   4.904
  212PEN     C7 7603   3.369   2.975   5.060
  212PEN     C8 7604   3.451   3.043   4.837
  212PEN     C9 7605   3.310   3.004   4.638
  212PEN    H10 7606   3.131   2.916   4.684
  212PEN    C11 7607   3.049   2.812   5.167
  212PEN    C12 7608   3.271   2.918   5.141
  212PEN    H13 7609   3.449   3.007   5.100
  212PEN    H14 7610   3.532   3.074   4.875
  212PEN    C15 7611   3.433   3.053   4.699
  212PEN    C16 7612   3.294   3.016   4.499
  212PEN    C17 7613   3.069   2.802   5.301
  212PEN    H18 7614   2.968   2.780   5.129
  212PEN    C19 7615   3.287   2.906   5.283
  212PEN    C20 7616   3.532   3.110   4.615
  212PEN    C21 7617   3.392   3.072   4.418
  212PEN    H22 7618   3.214   2.984   4.459
  212PEN    C23 7619   3.190   2.851   5.359
  212PEN    H24 7620   3.002   2.763   5.356
  212PEN    H25 7621   3.367   2.936   5.324
  212PEN    H26 7622   3.613   3.142   4.654
  212PEN    C27 7623   3.514   3.120   4.478
  212PEN    C28 7624   3.376   3.085   4.276
  212PEN    H29 7625   3.202   2.844   5.453
  212PEN    C30 7626   3.614   3.179   4.392
  212PEN    C31 7627   3.474   3.140   4.200
  212PEN    H32 7628   3.296   3.054   4.235
  212PEN    C33 7629   3.594   3.188   4.258
  212PEN    H34 7630   3.695   3.211   4.429
  212PEN    H35 7631   3.461   3.147   4.106
  212PEN    H36 7632   3.661   3.227   4.203
  213PEN     C1 7633   3.483   3.380   6.104
  213PEN     C2 7634   3.582   3.438   6.021
  213PEN     C3 7635   3.360   3.332   6.044
  213PEN     C4 7636   3.501   3.370   6.243
  213PEN     C5 7637   3.565   3.448   5.884
  213PEN     H6 7638   3.663   3.470   6.060
  213PEN     C7 7639   3.345   3.344   5.905
  213PEN     C8 7640   3.262   3.276   6.127
  213PEN     C9 7641   3.403   3.314   6.326
  213PEN    H10 7642   3.583   3.402   6.280
  213PEN    C11 7643   3.664   3.506   5.797
  213PEN    C12 7644   3.442   3.400   5.824
  213PEN    H13 7645   3.264   3.312   5.865
  213PEN    H14 7646   3.181   3.244   6.090
  213PEN    C15 7647   3.280   3.266   6.266
  213PEN    C16 7648   3.419   3.303   6.465
  213PEN    C17 7649   3.644   3.516   5.664
  213PEN    H18 7650   3.745   3.539   5.835
  213PEN    C19 7651   3.426   3.413   5.681
  213PEN    C20 7652   3.181   3.209   6.349
  213PEN    C21 7653   3.321   3.246   6.546
  213PEN    H22 7654   3.499   3.334   6.505
  213PEN    C23 7655   3.524   3.468   5.605
  213PEN    H24 7656   3.711   3.555   5.609
  213PEN    H25 7657   3.346   3.382   5.640
  213PEN    H26 7658   3.100   3.176   6.310
  213PEN    C27 7659   3.199   3.198   6.486
  213PEN    C28 7660   3.338   3.234   6.689
  213PEN    H29 7661   3.512   3.474   5.511
  213PEN    C30 7662   3.099   3.140   6.573
  213PEN    C31 7663   3.240   3.178   6.765
  213PEN    H32 7664   3.418   3.264   6.730
  213PEN    C33 7665   3.119   3.130   6.706
  213PEN    H34 7666   3.018   3.107   6.535
  213PEN    H35 7667   3.252   3.172   6.859
  213PEN    H36 7668   3.052   3.091   6.761
  214PEN     C1 7669   3.203   3.051   2.049
  214PEN     C2 7670   3.104   2.993   2.132
  214PEN     C3 7671   3.326   3.099   2.109
  214PEN     C4 7672   3.185   3.061   1.910
  214PEN     C5 7673   3.122   2.983   2.269
  214PEN     H6 7674   3.024   2.961   2.093
  214PEN     C7 7675   3.342   3.087   2.248
  214PEN     C8 7676   3.424   3.155   2.026
  214PEN     C9 7677   3.283   3.116   1.827
  214PEN    H10 7678   3.104   3.029   1.873
  214PEN    C11 7679   3.022   2.925   2.356
  214PEN    C12 7680   3.244   3.031   2.329
  214PEN    H13 7681   3.422   3.119   2.288
  214PEN    H14 7682   3.506   3.187   2.063
  214PEN    C15 7683   3.407   3.165   1.887
  214PEN    C16 7684   3.268   3.128   1.688
  214PEN    C17 7685   3.042   2.915   2.489
  214PEN    H18 7686   2.941   2.892   2.318
  214PEN    C19 7687   3.261   3.018   2.471
  214PEN    C20 7688   3.506   3.222   1.804
  214PEN    C21 7689   3.365   3.185   1.607
  214PEN    H22 7690   3.188   3.097   1.648
  214PEN    C23 7691   3.163   2.963   2.548
  214PEN    H24 7692   2.975   2.876   2.544
  214PEN    H25 7693   3.341   3.049   2.513
  214PEN    H26 7694   3.586   3.255   1.843
  214PEN    C27 7695   3.488   3.232   1.667
  214PEN    C28 7696   3.349   3.197   1.464
  214PEN    H29 7697   3.175   2.957   2.642
  214PEN    C30 7698   3.587   3.291   1.580
  214PEN    C31 7699   3.447   3.253   1.388
  214PEN    H32 7700   3.269   3.167   1.423
  214PEN    C33 7701   3.568   3.301   1.447
  214PEN    H34 7702   3.668   3.323   1.618
  214PEN    H35 7703   3.435   3.259   1.294
  214PEN    H36 7704   3.635   3.340   1.392
  215PEN     C1 7705   3.253   3.378   3.454
  215PEN     C2 7706   3.154   3.321   3.538
  215PEN     C3 7707   3.376   3.427   3.515
  215PEN     C4 7708   3.235   3.388   3.316
  215PEN     C5 7709   3.172   3.311   3.675
  215PEN     H6 7710   3.074   3.289   3.499
  215PEN     C7 7711   3.392   3.415   3.654
  215PEN     C8 7712   3.475   3.483   3.432
  215PEN     C9 7713   3.334   3.444   3.233
  215PEN    H10 7714   3.154   3.357   3.278
  215PEN    C11 7715   3.072   3.252   3.761
  215PEN    C12 7716   3.295   3.359   3.735
  215PEN    H13 7717   3.472   3.447   3.694
  215PEN    H14 7718   3.556   3.514   3.469
  215PEN    C15 7719   3.457   3.493   3.293
  215PEN    C16 7720   3.318   3.456   3.093
  215PEN    C17 7721   3.092   3.243   3.895
  215PEN    H18 7722   2.991   3.220   3.724
  215PEN    C19 7723   3.311   3.346   3.877
  215PEN    C20 7724   3.556   3.550   3.210
  215PEN    C21 7725   3.416   3.513   3.012
  215PEN    H22 7726   3.238   3.424   3.053
  215PEN    C23 7727   3.213   3.291   3.953
  215PEN    H24 7728   3.025   3.203   3.950
  215PEN    H25 7729   3.391   3.377   3.918
  215PEN    H26 7730   3.636   3.582   3.249
  215PEN    C27 7731   3.538   3.560   3.072
  215PEN    C28 7732   3.399   3.525   2.870
  215PEN    H29 7733   3.225   3.284   4.047
  215PEN    C30 7734   3.638   3.619   2.986
  215PEN    C31 7735   3.497   3.580   2.794
  215PEN    H32 7736   3.319   3.494   2.829
  215PEN    C33 7737   3.618   3.628   2.852
  215PEN    H34 7738   3.719   3.651   3.023
  215PEN    H35 7739   3.485   3.587   2.700
  215PEN    H36 7740   3.685   3.668   2.797
  216PEN     C1 7741   3.304   3.706   4.860
  216PEN     C2 7742   3.204   3.649   4.943
  216PEN     C3 7743   3.427   3.755   4.920
  216PEN     C4 7744   3.286   3.716   4.721
  216PEN     C5 7745   3.222   3.639   5.081
  216PEN     H6 7746   3.124   3.617   4.904
  216PEN     C7 7747   3.442   3.743   5.060
  216PEN     C8 7748   3.525   3.810   4.837
  216PEN     C9 7749   3.384   3.772   4.638
  216PEN    H10 7750   3.204   3.684   4.684
  216PEN    C11 7751   3.123   3.580   5.167
  216PEN    C12 7752   3.345   3.686   5.141
  216PEN    H13 7753   3.522   3.774   5.100
  216PEN    H14 7754   3.606   3.842   4.875
  216PEN    C15 7755   3.507   3.821   4.699
  216PEN    C16 7756   3.368   3.784   4.499
  216PEN    C17 7757   3.142   3.570   5.301
  216PEN    H18 7758   3.042   3.548   5.129
  216PEN    C19 7759   3.361   3.674   5.283
  216PEN    C20 7760   3.606   3.878   4.615
  216PEN    C21 7761   3.466   3.840   4.418
  216PEN    H22 7762   3.288   3.752   4.459
  216PEN    C23 7763   3.263   3.619   5.359
  216PEN    H24 7764   3.076   3.531   5.356
  216PEN    H25 7765   3.441   3.704   5.324
  216PEN    H26 7766   3.687   3.910   4.654
  216PEN    C27 7767   3.588   3.888   4.478
  216PEN    C28 7768   3.449   3.853   4.276
  216PEN    H29 7769   3.275   3.612   5.453
  216PEN    C30 7770   3.688   3.946   4.392
  216PEN    C31 7771   3.547   3.908   4.200
  216PEN    H32 7772   3.369   3.822   4.235
  216PEN    C33 7773   3.668   3.956   4.258
  216PEN    H34 7774   3.769   3.979   4.429
  216PEN    H35 7775   3.535   3.914   4.106
  216PEN    H36 7776   3.735   3.995   4.203
  217PEN     C1 7777   3.557   4.148   6.104
  217PEN     C2 7778   3.656   4.205   6.021
  217PEN     C3 7779   3.434   4.099   6.044
  217PEN     C4 7780   3.575   4.138   6.243
  217PEN     C5 7781   3.638   4.216   5.884
  217PEN     H6 7782   3.737   4.238   6.060
  217PEN     C7 7783   3.418   4.111   5.905
  217PEN     C8 7784   3.336   4.044   6.127
  217PEN     C9 7785   3.477   4.082   6.326
  217PEN    H10 7786   3.656   4.170   6.280
  217PEN    C11 7787   3.738   4.274   5.797
  217PEN    C12 7788   3.516   4.168   5.824
  217PEN    H13 7789   3.338   4.080   5.865
  217PEN    H14 7790   3.254   4.012   6.090
  217PEN    C15 7791   3.354   4.034   6.266
  217PEN    C16 7792   3.492   4.070   6.465
  217PEN    C17 7793   3.718   4.284   5.664
  217PEN    H18 7794   3.819   4.307   5.835
  217PEN    C19 7795   3.499   4.180   5.681
  217PEN    C20 7796   3.254   3.976   6.349
  217PEN    C21 7797   3.395   4.014   6.546
  217PEN    H22 7798   3.573   4.102   6.505
  217PEN    C23 7799   3.597   4.236   5.605
  217PEN    H24 7800   3.785   4.323   5.609
  217PEN    H25 7801   3.419   4.150   5.640
  217PEN    H26 7802   3.174   3.944   6.310
  217PEN    C27 7803   3.272   3.966   6.486
  217PEN    C28 7804   3.411   4.001   6.689
  217PEN    H29 7805   3.585   4.242   5.511
  217PEN    C30 7806   3.173   3.908   6.573
  217PEN    C31 7807   3.313   3.946   6.765
  217PEN    H32 7808   3.491   4.032   6.730
  217PEN    C33 7809   3.193   3.898   6.706
  217PEN    H34 7810   3.092   3.875   6.535
  217PEN    H35 7811   3.325   3.940   6.859
  217PEN    H36 7812   3.126   3.859   6.761
  218PEN     C1 7813   3.356   2.838   0.482
  218PEN     C2 7814   3.456   2.895   0.398
  218PEN     C3 7815   3.233   2.789   0.421
  218PEN     C4 7816   3.374   2.827   0.620
  218PEN     C5 7817   3.438   2.905   0.261
  218PEN     H6 7818   3.536   2.927   0.437
  218PEN     C7 7819   3.218   2.801   0.282
  218PEN     C8 7820   3.135   2.733   0.504
  218PEN     C9 7821   3.276   2.772   0.703
  218PEN    H10 7822   3.456   2.859   0.658
  218PEN    C11 7823   3.537   2.963   0.175
  218PEN    C12 7824   3.315   2.857   0.201
  218PEN    H13 7825   3.138   2.769   0.242
  218PEN    H14 7826   3.054   2.701   0.467
  218PEN    C15 7827   3.153   2.723   0.643
  218PEN    C16 7828   3.292   2.760   0.843
  218PEN    C17 7829   3.518   2.973   0.041
  218PEN    H18 7830   3.618   2.996   0.212
  218PEN    C19 7831   3.299   2.870   0.059
  218PEN    C20 7832   3.054   2.666   0.726
  218PEN    C21 7833   3.194   2.703   0.924
  218PEN    H22 7834   3.372   2.791   0.883
  218PEN    C23 7835   3.397   2.925  -0.017
  218PEN    H24 7836   3.584   3.012  -0.014
  218PEN    H25 7837   3.219   2.839   0.018
  218PEN    H26 7838   2.973   2.634   0.687
  218PEN    C27 7839   3.072   2.656   0.864
  218PEN    C28 7840   3.211   2.691   1.066
  218PEN    H29 7841   3.385   2.931  -0.111
  218PEN    C30 7842   2.972   2.597   0.950
  218PEN    C31 7843   3.113   2.636   1.142
  218PEN    H32 7844   3.291   2.721   1.107
  218PEN    C33 7845   2.992   2.587   1.083
  218PEN    H34 7846   2.891   2.565   0.912
  218PEN    H35 7847   3.125   2.629   1.236
  218PEN    H36 7848   2.925   2.548   1.138
  219PEN     C1 7849   3.480   3.933   1.887
  219PEN     C2 7850   3.579   3.990   1.804
  219PEN     C3 7851   3.357   3.884   1.827
  219PEN     C4 7852   3.498   3.923   2.026
  219PEN     C5 7853   3.561   4.000   1.667
  219PEN     H6 7854   3.660   4.022   1.843
  219PEN     C7 7855   3.341   3.896   1.688
  219PEN     C8 7856   3.259   3.829   1.910
  219PEN     C9 7857   3.400   3.867   2.109
  219PEN    H10 7858   3.579   3.955   2.063
  219PEN    C11 7859   3.661   4.059   1.580
  219PEN    C12 7860   3.439   3.953   1.607
  219PEN    H13 7861   3.261   3.864   1.648
  219PEN    H14 7862   3.178   3.797   1.873
  219PEN    C15 7863   3.277   3.818   2.049
  219PEN    C16 7864   3.416   3.855   2.248
  219PEN    C17 7865   3.641   4.069   1.447
  219PEN    H18 7866   3.742   4.091   1.618
  219PEN    C19 7867   3.423   3.965   1.464
  219PEN    C20 7868   3.178   3.761   2.132
  219PEN    C21 7869   3.318   3.799   2.329
  219PEN    H22 7870   3.496   3.887   2.288
  219PEN    C23 7871   3.521   4.020   1.388
  219PEN    H24 7872   3.708   4.108   1.392
  219PEN    H25 7873   3.343   3.935   1.423
  219PEN    H26 7874   3.097   3.729   2.093
  219PEN    C27 7875   3.196   3.751   2.269
  219PEN    C28 7876   3.334   3.786   2.471
  219PEN    H29 7877   3.508   4.027   1.294
  219PEN    C30 7878   3.096   3.693   2.356
  219PEN    C31 7879   3.237   3.731   2.548
  219PEN    H32 7880   3.414   3.817   2.513
  219PEN    C33 7881   3.116   3.683   2.489
  219PEN    H34 7882   3.015   3.660   2.318
  219PEN    H35 7883   3.249   3.725   2.642
  219PEN    H36 7884   3.049   3.644   2.544
  220PEN     C1 7885   3.530   4.261   3.293
  220PEN     C2 7886   3.629   4.318   3.210
  220PEN     C3 7887   3.407   4.212   3.233
  220PEN     C4 7888   3.548   4.251   3.432
  220PEN     C5 7889   3.612   4.328   3.072
  220PEN     H6 7890   3.710   4.350   3.249
  220PEN     C7 7891   3.392   4.224   3.093
  220PEN     C8 7892   3.309   4.156   3.316
  220PEN     C9 7893   3.450   4.195   3.515
  220PEN    H10 7894   3.630   4.282   3.469
  220PEN    C11 7895   3.711   4.387   2.986
  220PEN    C12 7896   3.489   4.280   3.012
  220PEN    H13 7897   3.311   4.192   3.053
  220PEN    H14 7898   3.228   4.125   3.278
  220PEN    C15 7899   3.327   4.146   3.454
  220PEN    C16 7900   3.466   4.183   3.654
  220PEN    C17 7901   3.691   4.396   2.852
  220PEN    H18 7902   3.792   4.419   3.023
  220PEN    C19 7903   3.473   4.293   2.870
  220PEN    C20 7904   3.228   4.089   3.538
  220PEN    C21 7905   3.368   4.126   3.735
  220PEN    H22 7906   3.546   4.215   3.694
  220PEN    C23 7907   3.571   4.348   2.794
  220PEN    H24 7908   3.758   4.436   2.797
  220PEN    H25 7909   3.393   4.262   2.829
  220PEN    H26 7910   3.147   4.057   3.499
  220PEN    C27 7911   3.246   4.079   3.675
  220PEN    C28 7912   3.385   4.114   3.877
  220PEN    H29 7913   3.559   4.355   2.700
  220PEN    C30 7914   3.146   4.020   3.761
  220PEN    C31 7915   3.287   4.059   3.953
  220PEN    H32 7916   3.465   4.144   3.918
  220PEN    C33 7917   3.166   4.010   3.895
  220PEN    H34 7918   3.065   3.988   3.724
  220PEN    H35 7919   3.299   4.052   4.047
  220PEN    H36 7920   3.099   3.971   3.950
  221PEN     C1 7921   3.430   3.605   0.482
  221PEN     C2 7922   3.529   3.663   0.398
  221PEN     C3 7923   3.307   3.557   0.421
  221PEN     C4 7924   3.448   3.595   0.620
  221PEN     C5 7925   3.511   3.673   0.261
  221PEN     H6 7926   3.610   3.695   0.437
  221PEN     C7 7927   3.291   3.569   0.282
  221PEN     C8 7928   3.209   3.501   0.504
  221PEN     C9 7929   3.350   3.539   0.703
  221PEN    H10 7930   3.529   3.627   0.658
  221PEN    C11 7931   3.611   3.731   0.175
  221PEN    C12 7932   3.389   3.625   0.201
  221PEN    H13 7933   3.211   3.537   0.242
  221PEN    H14 7934   3.127   3.469   0.467
  221PEN    C15 7935   3.227   3.491   0.643
  221PEN    C16 7936   3.365   3.528   0.843
  221PEN    C17 7937   3.591   3.741   0.041
  221PEN    H18 7938   3.692   3.764   0.212
  221PEN    C19 7939   3.373   3.638   0.059
  221PEN    C20 7940   3.128   3.434   0.726
  221PEN    C21 7941   3.268   3.471   0.924
  221PEN    H22 7942   3.446   3.559   0.883
  221PEN    C23 7943   3.470   3.693  -0.017
  221PEN    H24 7944   3.658   3.780  -0.014
  221PEN    H25 7945   3.293   3.607   0.018
  221PEN    H26 7946   3.047   3.401   0.687
  221PEN    C27 7947   3.145   3.423   0.864
  221PEN    C28 7948   3.284   3.458   1.066
  221PEN    H29 7949   3.458   3.699  -0.111
  221PEN    C30 7950   3.046   3.365   0.950
  221PEN    C31 7951   3.186   3.403   1.142
  221PEN    H32 7952   3.364   3.489   1.107
  221PEN    C33 7953   3.066   3.355   1.083
  221PEN    H34 7954   2.965   3.332   0.912
  221PEN    H35 7955   3.198   3.397   1.236
  221PEN    H36 7956   2.999   3.316   1.138
  222PEN     C1 7957   3.580   4.588   4.699
  222PEN     C2 7958   3.680   4.646   4.615
  222PEN     C3 7959   3.457   4.540   4.638
  222PEN     C4 7960   3.598   4.578   4.837
  222PEN     C5 7961   3.662   4.656   4.478
  222PEN     H6 7962   3.760   4.678   4.654
  222PEN     C7 7963   3.442   4.552   4.499
  222PEN     C8 7964   3.359   4.484   4.721
  222PEN     C9 7965   3.500   4.523   4.920
  222PEN    H10 7966   3.680   4.610   4.875
  222PEN    C11 7967   3.761   4.714   4.392
  222PEN    C12 7968   3.539   4.608   4.418
  222PEN    H13 7969   3.362   4.520   4.459
  222PEN    H14 7970   3.278   4.452   4.684
  222PEN    C15 7971   3.377   4.474   4.860
  222PEN    C16 7972   3.516   4.511   5.060
  222PEN    C17 7973   3.742   4.724   4.258
  222PEN    H18 7974   3.842   4.747   4.429
  222PEN    C19 7975   3.523   4.621   4.276
  222PEN    C20 7976   3.278   4.417   4.943
  222PEN    C21 7977   3.418   4.454   5.141
  222PEN    H22 7978   3.596   4.542   5.100
  222PEN    C23 7979   3.621   4.676   4.200
  222PEN    H24 7980   3.808   4.763   4.203
  222PEN    H25 7981   3.443   4.590   4.235
  222PEN    H26 7982   3.197   4.384   4.904
  222PEN    C27 7983   3.296   4.406   5.081
  222PEN    C28 7984   3.435   4.442   5.283
  222PEN    H29 7985   3.609   4.682   4.106
  222PEN    C30 7986   3.196   4.348   5.167
  222PEN    C31 7987   3.337   4.386   5.359
  222PEN    H32 7988   3.515   4.472   5.324
  222PEN    C33 7989   3.216   4.338   5.301
  222PEN    H34 7990   3.115   4.315   5.129
  222PEN    H35 7991   3.349   4.380   5.453
  222PEN    H36 7992   3.149   4.299   5.356
  223PEN     C1 7993   3.427   4.801   6.266
  223PEN     C2 7994   3.328   4.744   6.349
  223PEN     C3 7995   3.550   4.850   6.326
  223PEN     C4 7996   3.409   4.812   6.127
  223PEN     C5 7997   3.346   4.734   6.486
  223PEN     H6 7998   3.248   4.712   6.310
  223PEN     C7 7999   3.566   4.838   6.465
  223PEN     C8 8000   3.648   4.906   6.243
  223PEN     C9 8001   3.507   4.867   6.044
  223PEN    H10 8002   3.328   4.780   6.090
  223PEN    C11 8003   3.246   4.676   6.573
  223PEN    C12 8004   3.468   4.782   6.546
  223PEN    H13 8005   3.646   4.870   6.505
  223PEN    H14 8006   3.730   4.938   6.280
  223PEN    C15 8007   3.631   4.916   6.104
  223PEN    C16 8008   3.492   4.879   5.905
  223PEN    C17 8009   3.266   4.666   6.706
  223PEN    H18 8010   3.165   4.643   6.535
  223PEN    C19 8011   3.485   4.769   6.689
  223PEN    C20 8012   3.730   4.973   6.021
  223PEN    C21 8013   3.589   4.936   5.824
  223PEN    H22 8014   3.412   4.848   5.865
  223PEN    C23 8015   3.387   4.714   6.765
  223PEN    H24 8016   3.199   4.627   6.761
  223PEN    H25 8017   3.565   4.800   6.730
  223PEN    H26 8018   3.810   5.005   6.060
  223PEN    C27 8019   3.712   4.983   5.884
  223PEN    C28 8020   3.573   4.948   5.681
  223PEN    H29 8021   3.399   4.708   6.859
  223PEN    C30 8022   3.811   5.042   5.797
  223PEN    C31 8023   3.671   5.003   5.605
  223PEN    H32 8024   3.493   4.918   5.640
  223PEN    C33 8025   3.792   5.052   5.664
  223PEN    H34 8026   3.892   5.074   5.835
  223PEN    H35 8027   3.659   5.010   5.511
  223PEN    H36 8028   3.858   5.091   5.609
  224PEN     C1 8029   2.932   0.419   0.643
  224PEN     C2 8030   2.833   0.362   0.726
  224PEN     C3 8031   3.055   0.468   0.703
  224PEN     C4 8032   2.914   0.429   0.504
  224PEN     C5 8033   2.851   0.352   0.864
  224PEN     H6 8034   2.753   0.330   0.687
  224PEN     C7 8035   3.071   0.456   0.843
  224PEN     C8 8036   3.154   0.524   0.620
  224PEN     C9 8037   3.012   0.485   0.421
  224PEN    H10 8038   2.833   0.398   0.467
  224PEN    C11 8039   2.751   0.293   0.950
  224PEN    C12 8040   2.973   0.400   0.924
  224PEN    H13 8041   3.151   0.488   0.883
  224PEN    H14 8042   3.235   0.555   0.658
  224PEN    C15 8043   3.136   0.534   0.482
  224PEN    C16 8044   2.997   0.497   0.282
  224PEN    C17 8045   2.771   0.284   1.083
  224PEN    H18 8046   2.670   0.261   0.912
  224PEN    C19 8047   2.990   0.387   1.066
  224PEN    C20 8048   3.235   0.591   0.398
  224PEN    C21 8049   3.094   0.554   0.201
  224PEN    H22 8050   2.917   0.465   0.242
  224PEN    C23 8051   2.892   0.332   1.142
  224PEN    H24 8052   2.704   0.245   1.138
  224PEN    H25 8053   3.070   0.418   1.107
  224PEN    H26 8054   3.315   0.623   0.437
  224PEN    C27 8055   3.217   0.601   0.261
  224PEN    C28 8056   3.078   0.566   0.059
  224PEN    H29 8057   2.904   0.325   1.236
  224PEN    C30 8058   3.316   0.660   0.175
  224PEN    C31 8059   3.176   0.621  -0.017
  224PEN    H32 8060   2.998   0.536   0.018
  224PEN    C33 8061   3.297   0.670   0.041
  224PEN    H34 8062   3.397   0.692   0.212
  224PEN    H35 8063   3.164   0.628  -0.111
  224PEN    H36 8064   3.364   0.709  -0.014
  225PEN     C1 8065   3.209   1.302   0.482
  225PEN     C2 8066   3.308   1.359   0.398
  225PEN     C3 8067   3.086   1.253   0.421
  225PEN     C4 8068   3.227   1.292   0.620
  225PEN     C5 8069   3.291   1.369   0.261
  225PEN     H6 8070   3.389   1.391   0.437
  225PEN     C7 8071   3.070   1.265   0.282
  225PEN     C8 8072   2.988   1.197   0.504
  225PEN     C9 8073   3.129   1.236   0.703
  225PEN    H10 8074   3.308   1.323   0.658
  225PEN    C11 8075   3.390   1.428   0.175
  225PEN    C12 8076   3.168   1.322   0.201
  225PEN    H13 8077   2.990   1.233   0.242
  225PEN    H14 8078   2.907   1.166   0.467
  225PEN    C15 8079   3.006   1.187   0.643
  225PEN    C16 8080   3.145   1.224   0.843
  225PEN    C17 8081   3.370   1.437   0.041
  225PEN    H18 8082   3.471   1.460   0.212
  225PEN    C19 8083   3.152   1.334   0.059
  225PEN    C20 8084   2.907   1.130   0.726
  225PEN    C21 8085   3.047   1.167   0.924
  225PEN    H22 8086   3.225   1.256   0.883
  225PEN    C23 8087   3.250   1.389  -0.017
  225PEN    H24 8088   3.437   1.477  -0.014
  225PEN    H25 8089   3.072   1.303   0.018
  225PEN    H26 8090   2.826   1.098   0.687
  225PEN    C27 8091   2.925   1.120   0.864
  225PEN    C28 8092   3.063   1.155   1.066
  225PEN    H29 8093   3.237   1.396  -0.111
  225PEN    C30 8094   2.825   1.061   0.950
  225PEN    C31 8095   2.966   1.100   1.142
  225PEN    H32 8096   3.143   1.186   1.107
  225PEN    C33 8097   2.845   1.052   1.083
  225PEN    H34 8098   2.744   1.029   0.912
  225PEN    H35 8099   2.978   1.093   1.236
  225PEN    H36 8100   2.778   1.012   1.138
  226PEN     C1 8101   0.694   4.257   1.869
  226PEN     C2 8102   0.792   4.256   1.767
  226PEN     C3 8103   0.569   4.330   1.846
  226PEN     C4 8104   0.711   4.189   1.990
  226PEN     C5 8105   0.773   4.322   1.647
  226PEN     H6 8106   0.874   4.210   1.781
  226PEN     C7 8107   0.552   4.398   1.723
  226PEN     C8 8108   0.472   4.330   1.946
  226PEN     C9 8109   0.613   4.189   2.090
  226PEN    H10 8110   0.792   4.142   2.003
  226PEN    C11 8111   0.871   4.321   1.543
  226PEN    C12 8112   0.650   4.395   1.624
  226PEN    H13 8113   0.472   4.446   1.708
  226PEN    H14 8114   0.391   4.378   1.933
  226PEN    C15 8115   0.489   4.262   2.067
  226PEN    C16 8116   0.630   4.122   2.213
  226PEN    C17 8117   0.850   4.385   1.426
  226PEN    H18 8118   0.953   4.274   1.557
  226PEN    C19 8119   0.633   4.461   1.499
  226PEN    C20 8120   0.391   4.263   2.169
  226PEN    C21 8121   0.533   4.125   2.312
  226PEN    H22 8122   0.711   4.073   2.228
  226PEN    C23 8123   0.728   4.457   1.403
  226PEN    H24 8124   0.917   4.383   1.358
  226PEN    H25 8125   0.552   4.509   1.482
  226PEN    H26 8126   0.309   4.310   2.155
  226PEN    C27 8127   0.410   4.197   2.289
  226PEN    C28 8128   0.550   4.059   2.437
  226PEN    H29 8129   0.714   4.501   1.320
  226PEN    C30 8130   0.312   4.199   2.393
  226PEN    C31 8131   0.455   4.063   2.533
  226PEN    H32 8132   0.631   4.010   2.454
  226PEN    C33 8133   0.333   4.134   2.510
  226PEN    H34 8134   0.230   4.246   2.379
  226PEN    H35 8135   0.468   4.018   2.616
  226PEN    H36 8136   0.266   4.137   2.578
  227PEN     C1 8137   0.744   4.585   3.274
  227PEN     C2 8138   0.842   4.584   3.172
  227PEN     C3 8139   0.620   4.658   3.251
  227PEN     C4 8140   0.761   4.517   3.396
  227PEN     C5 8141   0.823   4.650   3.052
  227PEN     H6 8142   0.924   4.537   3.187
  227PEN     C7 8143   0.603   4.725   3.129
  227PEN     C8 8144   0.522   4.658   3.352
  227PEN     C9 8145   0.664   4.517   3.496
  227PEN    H10 8146   0.842   4.469   3.409
  227PEN    C11 8147   0.921   4.648   2.949
  227PEN    C12 8148   0.700   4.723   3.030
  227PEN    H13 8149   0.522   4.774   3.114
  227PEN    H14 8150   0.441   4.705   3.338
  227PEN    C15 8151   0.539   4.590   3.473
  227PEN    C16 8152   0.681   4.449   3.619
  227PEN    C17 8153   0.900   4.713   2.831
  227PEN    H18 8154   1.003   4.601   2.962
  227PEN    C19 8155   0.683   4.788   2.904
  227PEN    C20 8156   0.441   4.591   3.575
  227PEN    C21 8157   0.583   4.452   3.717
  227PEN    H22 8158   0.761   4.401   3.634
  227PEN    C23 8159   0.778   4.784   2.809
  227PEN    H24 8160   0.967   4.710   2.764
  227PEN    H25 8161   0.602   4.837   2.888
  227PEN    H26 8162   0.359   4.637   3.560
  227PEN    C27 8163   0.460   4.525   3.695
  227PEN    C28 8164   0.600   4.386   3.843
  227PEN    H29 8165   0.765   4.829   2.726
  227PEN    C30 8166   0.362   4.526   3.799
  227PEN    C31 8167   0.505   4.391   3.939
  227PEN    H32 8168   0.681   4.338   3.859
  227PEN    C33 8169   0.383   4.462   3.916
  227PEN    H34 8170   0.280   4.573   3.785
  227PEN    H35 8171   0.519   4.346   4.022
  227PEN    H36 8172   0.316   4.464   3.983
  228PEN     C1 8173   0.844   5.240   6.086
  228PEN     C2 8174   0.943   5.240   5.984
  228PEN     C3 8175   0.720   5.313   6.063
  228PEN     C4 8176   0.861   5.172   6.207
  228PEN     C5 8177   0.923   5.305   5.864
  228PEN     H6 8178   1.024   5.193   5.998
  228PEN     C7 8179   0.703   5.381   5.940
  228PEN     C8 8180   0.622   5.313   6.163
  228PEN     C9 8181   0.764   5.173   6.307
  228PEN    H10 8182   0.943   5.125   6.220
  228PEN    C11 8183   1.022   5.304   5.760
  228PEN    C12 8184   0.800   5.378   5.841
  228PEN    H13 8185   0.623   5.429   5.925
  228PEN    H14 8186   0.541   5.361   6.150
  228PEN    C15 8187   0.639   5.245   6.284
  228PEN    C16 8188   0.781   5.105   6.430
  228PEN    C17 8189   1.000   5.368   5.643
  228PEN    H18 8190   1.103   5.257   5.774
  228PEN    C19 8191   0.783   5.444   5.716
  228PEN    C20 8192   0.541   5.246   6.386
  228PEN    C21 8193   0.684   5.108   6.529
  228PEN    H22 8194   0.861   5.056   6.445
  228PEN    C23 8195   0.879   5.440   5.620
  228PEN    H24 8196   1.067   5.366   5.575
  228PEN    H25 8197   0.703   5.492   5.699
  228PEN    H26 8198   0.459   5.293   6.372
  228PEN    C27 8199   0.560   5.180   6.506
  228PEN    C28 8200   0.701   5.042   6.654
  228PEN    H29 8201   0.865   5.484   5.537
  228PEN    C30 8202   0.462   5.182   6.610
  228PEN    C31 8203   0.605   5.046   6.750
  228PEN    H32 8204   0.781   4.993   6.671
  228PEN    C33 8205   0.483   5.117   6.727
  228PEN    H34 8206   0.381   5.229   6.596
  228PEN    H35 8207   0.619   5.001   6.833
  228PEN    H36 8208   0.417   5.120   6.795
  229PEN     C1 8209   0.399   1.186   1.869
  229PEN     C2 8210   0.498   1.185   1.767
  229PEN     C3 8211   0.275   1.258   1.846
  229PEN     C4 8212   0.417   1.118   1.990
  229PEN     C5 8213   0.478   1.251   1.647
  229PEN     H6 8214   0.579   1.138   1.781
  229PEN     C7 8215   0.258   1.326   1.723
  229PEN     C8 8216   0.177   1.259   1.946
  229PEN     C9 8217   0.319   1.118   2.090
  229PEN    H10 8218   0.498   1.070   2.003
  229PEN    C11 8219   0.577   1.249   1.543
  229PEN    C12 8220   0.355   1.323   1.624
  229PEN    H13 8221   0.178   1.375   1.708
  229PEN    H14 8222   0.096   1.306   1.933
  229PEN    C15 8223   0.195   1.191   2.067
  229PEN    C16 8224   0.336   1.050   2.213
  229PEN    C17 8225   0.556   1.314   1.426
  229PEN    H18 8226   0.658   1.202   1.557
  229PEN    C19 8227   0.338   1.389   1.499
  229PEN    C20 8228   0.096   1.191   2.169
  229PEN    C21 8229   0.239   1.053   2.312
  229PEN    H22 8230   0.416   1.002   2.228
  229PEN    C23 8231   0.434   1.385   1.403
  229PEN    H24 8232   0.622   1.311   1.358
  229PEN    H25 8233   0.258   1.437   1.482
  229PEN    H26 8234   0.015   1.238   2.155
  229PEN    C27 8235   0.116   1.125   2.289
  229PEN    C28 8236   0.256   0.987   2.437
  229PEN    H29 8237   0.420   1.430   1.320
  229PEN    C30 8238   0.017   1.127   2.393
  229PEN    C31 8239   0.160   0.991   2.533
  229PEN    H32 8240   0.336   0.939   2.454
  229PEN    C33 8241   0.038   1.063   2.510
  229PEN    H34 8242  -0.064   1.174   2.379
  229PEN    H35 8243   0.174   0.947   2.616
  229PEN    H36 8244  -0.028   1.065   2.578
  230PEN     C1 8245   0.295   1.846   4.879
  230PEN     C2 8246   0.196   1.847   4.980
  230PEN     C3 8247   0.419   1.773   4.902
  230PEN     C4 8248   0.278   1.914   4.757
  230PEN     C5 8249   0.216   1.781   5.101
  230PEN     H6 8250   0.115   1.894   4.966
  230PEN     C7 8251   0.436   1.706   5.024
  230PEN     C8 8252   0.517   1.773   4.801
  230PEN     C9 8253   0.375   1.914   4.657
  230PEN    H10 8254   0.196   1.962   4.744
  230PEN    C11 8255   0.117   1.783   5.204
  230PEN    C12 8256   0.339   1.708   5.123
  230PEN    H13 8257   0.516   1.657   5.039
  230PEN    H14 8258   0.598   1.726   4.814
  230PEN    C15 8259   0.500   1.841   4.680
  230PEN    C16 8260   0.358   1.981   4.534
  230PEN    C17 8261   0.139   1.718   5.321
  230PEN    H18 8262   0.036   1.829   5.191
  230PEN    C19 8263   0.356   1.642   5.249
  230PEN    C20 8264   0.598   1.840   4.578
  230PEN    C21 8265   0.456   1.979   4.435
  230PEN    H22 8266   0.278   2.030   4.519
  230PEN    C23 8267   0.260   1.647   5.344
  230PEN    H24 8268   0.072   1.721   5.389
  230PEN    H25 8269   0.436   1.594   5.265
  230PEN    H26 8270   0.680   1.794   4.593
  230PEN    C27 8271   0.579   1.906   4.458
  230PEN    C28 8272   0.438   2.045   4.310
  230PEN    H29 8273   0.274   1.602   5.427
  230PEN    C30 8274   0.677   1.905   4.354
  230PEN    C31 8275   0.534   2.040   4.214
  230PEN    H32 8276   0.358   2.093   4.294
  230PEN    C33 8277   0.656   1.969   4.237
  230PEN    H34 8278   0.758   1.858   4.368
  230PEN    H35 8279   0.520   2.085   4.131
  230PEN    H36 8280   0.723   1.967   4.170
  231PEN     C1 8281   0.550   2.169   6.086
  231PEN     C2 8282   0.648   2.168   5.984
  231PEN     C3 8283   0.425   2.241   6.063
  231PEN     C4 8284   0.567   2.101   6.207
  231PEN     C5 8285   0.629   2.234   5.864
  231PEN     H6 8286   0.730   2.121   5.998
  231PEN     C7 8287   0.408   2.309   5.940
  231PEN     C8 8288   0.328   2.242   6.163
  231PEN     C9 8289   0.469   2.101   6.307
  231PEN    H10 8290   0.648   2.053   6.220
  231PEN    C11 8291   0.727   2.232   5.760
  231PEN    C12 8292   0.506   2.306   5.841
  231PEN    H13 8293   0.328   2.358   5.925
  231PEN    H14 8294   0.246   2.289   6.150
  231PEN    C15 8295   0.345   2.174   6.284
  231PEN    C16 8296   0.486   2.033   6.430
  231PEN    C17 8297   0.706   2.297   5.643
  231PEN    H18 8298   0.809   2.185   5.774
  231PEN    C19 8299   0.488   2.372   5.716
  231PEN    C20 8300   0.246   2.174   6.386
  231PEN    C21 8301   0.389   2.036   6.529
  231PEN    H22 8302   0.566   1.985   6.445
  231PEN    C23 8303   0.584   2.368   5.620
  231PEN    H24 8304   0.773   2.294   5.575
  231PEN    H25 8305   0.408   2.421   5.699
  231PEN    H26 8306   0.165   2.221   6.372
  231PEN    C27 8307   0.266   2.109   6.506
  231PEN    C28 8308   0.406   1.970   6.654
  231PEN    H29 8309   0.570   2.413   5.537
  231PEN    C30 8310   0.168   2.110   6.610
  231PEN    C31 8311   0.311   1.974   6.750
  231PEN    H32 8312   0.487   1.922   6.671
  231PEN    C33 8313   0.189   2.046   6.727
  231PEN    H34 8314   0.086   2.157   6.596
  231PEN    H35 8315   0.324   1.930   6.833
  231PEN    H36 8316   0.122   2.048   6.795
  232PEN     C1 8317   0.368   2.614   4.879
  232PEN     C2 8318   0.270   2.615   4.980
  232PEN     C3 8319   0.493   2.541   4.902
  232PEN     C4 8320   0.351   2.682   4.757
  232PEN     C5 8321   0.290   2.549   5.101
  232PEN     H6 8322   0.189   2.661   4.966
  232PEN     C7 8323   0.510   2.474   5.024
  232PEN     C8 8324   0.590   2.541   4.801
  232PEN     C9 8325   0.449   2.682   4.657
  232PEN    H10 8326   0.270   2.729   4.744
  232PEN    C11 8327   0.191   2.550   5.204
  232PEN    C12 8328   0.413   2.476   5.123
  232PEN    H13 8329   0.590   2.425   5.039
  232PEN    H14 8330   0.672   2.493   4.814
  232PEN    C15 8331   0.573   2.609   4.680
  232PEN    C16 8332   0.432   2.749   4.534
  232PEN    C17 8333   0.212   2.486   5.321
  232PEN    H18 8334   0.110   2.597   5.191
  232PEN    C19 8335   0.430   2.410   5.249
  232PEN    C20 8336   0.672   2.608   4.578
  232PEN    C21 8337   0.529   2.747   4.435
  232PEN    H22 8338   0.352   2.798   4.519
  232PEN    C23 8339   0.334   2.415   5.344
  232PEN    H24 8340   0.146   2.488   5.389
  232PEN    H25 8341   0.510   2.362   5.265
  232PEN    H26 8342   0.753   2.561   4.593
  232PEN    C27 8343   0.652   2.674   4.458
  232PEN    C28 8344   0.512   2.813   4.310
  232PEN    H29 8345   0.348   2.370   5.427
  232PEN    C30 8346   0.751   2.672   4.354
  232PEN    C31 8347   0.608   2.808   4.214
  232PEN    H32 8348   0.432   2.861   4.294
  232PEN    C33 8349   0.729   2.737   4.237
  232PEN    H34 8350   0.832   2.626   4.368
  232PEN    H35 8351   0.594   2.853   4.131
  232PEN    H36 8352   0.796   2.735   4.170
  233PEN     C1 8353   0.473   1.953   1.869
  233PEN     C2 8354   0.572   1.953   1.767
  233PEN     C3 8355   0.349   2.026   1.846
  233PEN     C4 8356   0.490   1.885   1.990
  233PEN     C5 8357   0.552   2.019   1.647
  233PEN     H6 8358   0.653   1.906   1.781
  233PEN     C7 8359   0.332   2.094   1.723
  233PEN     C8 8360   0.251   2.027   1.946
  233PEN     C9 8361   0.393   1.886   2.090
  233PEN    H10 8362   0.571   1.838   2.003
  233PEN    C11 8363   0.650   2.017   1.543
  233PEN    C12 8364   0.429   2.091   1.624
  233PEN    H13 8365   0.251   2.143   1.708
  233PEN    H14 8366   0.170   2.074   1.933
  233PEN    C15 8367   0.268   1.959   2.067
  233PEN    C16 8368   0.410   1.818   2.213
  233PEN    C17 8369   0.629   2.081   1.426
  233PEN    H18 8370   0.732   1.970   1.557
  233PEN    C19 8371   0.412   2.157   1.499
  233PEN    C20 8372   0.170   1.959   2.169
  233PEN    C21 8373   0.312   1.821   2.312
  233PEN    H22 8374   0.490   1.769   2.228
  233PEN    C23 8375   0.507   2.153   1.403
  233PEN    H24 8376   0.696   2.079   1.358
  233PEN    H25 8377   0.331   2.205   1.482
  233PEN    H26 8378   0.088   2.006   2.155
  233PEN    C27 8379   0.189   1.893   2.289
  233PEN    C28 8380   0.330   1.755   2.437
  233PEN    H29 8381   0.494   2.197   1.320
  233PEN    C30 8382   0.091   1.895   2.393
  233PEN    C31 8383   0.234   1.759   2.533
  233PEN    H32 8384   0.410   1.707   2.454
  233PEN    C33 8385   0.112   1.831   2.510
  233PEN    H34 8386   0.009   1.942   2.379
  233PEN    H35 8387   0.248   1.715   2.616
  233PEN    H36 8388   0.045   1.833   2.578
  234PEN     C1 8389   0.523   2.281   3.274
  234PEN     C2 8390   0.622   2.281   3.172
  234PEN     C3 8391   0.399   2.354   3.251
  234PEN     C4 8392   0.540   2.213   3.396
  234PEN     C5 8393   0.602   2.346   3.052
  234PEN     H6 8394   0.703   2.234   3.187
  234PEN     C7 8395   0.382   2.422   3.129
  234PEN     C8 8396   0.301   2.354   3.352
  234PEN     C9 8397   0.443   2.214   3.496
  234PEN    H10 8398   0.622   2.166   3.409
  234PEN    C11 8399   0.700   2.345   2.949
  234PEN    C12 8400   0.479   2.419   3.030
  234PEN    H13 8401   0.302   2.470   3.114
  234PEN    H14 8402   0.220   2.402   3.338
  234PEN    C15 8403   0.318   2.286   3.473
  234PEN    C16 8404   0.460   2.146   3.619
  234PEN    C17 8405   0.679   2.409   2.831
  234PEN    H18 8406   0.782   2.298   2.962
  234PEN    C19 8407   0.462   2.485   2.904
  234PEN    C20 8408   0.220   2.287   3.575
  234PEN    C21 8409   0.362   2.149   3.717
  234PEN    H22 8410   0.540   2.097   3.634
  234PEN    C23 8411   0.558   2.481   2.809
  234PEN    H24 8412   0.746   2.407   2.764
  234PEN    H25 8413   0.382   2.533   2.888
  234PEN    H26 8414   0.138   2.334   3.560
  234PEN    C27 8415   0.239   2.221   3.695
  234PEN    C28 8416   0.380   2.083   3.843
  234PEN    H29 8417   0.544   2.525   2.726
  234PEN    C30 8418   0.141   2.223   3.799
  234PEN    C31 8419   0.284   2.087   3.939
  234PEN    H32 8420   0.460   2.035   3.859
  234PEN    C33 8421   0.162   2.158   3.916
  234PEN    H34 8422   0.059   2.270   3.785
  234PEN    H35 8423   0.298   2.042   4.022
  234PEN    H36 8424   0.095   2.161   3.983
  235PEN     C1 8425   0.623   2.936   6.086
  235PEN     C2 8426   0.722   2.936   5.984
  235PEN     C3 8427   0.499   3.009   6.063
  235PEN     C4 8428   0.641   2.868   6.207
  235PEN     C5 8429   0.702   3.002   5.864
  235PEN     H6 8430   0.803   2.889   5.998
  235PEN     C7 8431   0.482   3.077   5.940
  235PEN     C8 8432   0.401   3.010   6.163
  235PEN     C9 8433   0.543   2.869   6.307
  235PEN    H10 8434   0.722   2.821   6.220
  235PEN    C11 8435   0.801   3.000   5.760
  235PEN    C12 8436   0.579   3.074   5.841
  235PEN    H13 8437   0.402   3.126   5.925
  235PEN    H14 8438   0.320   3.057   6.150
  235PEN    C15 8439   0.419   2.942   6.284
  235PEN    C16 8440   0.560   2.801   6.430
  235PEN    C17 8441   0.780   3.065   5.643
  235PEN    H18 8442   0.882   2.953   5.774
  235PEN    C19 8443   0.562   3.140   5.716
  235PEN    C20 8444   0.320   2.942   6.386
  235PEN    C21 8445   0.463   2.804   6.529
  235PEN    H22 8446   0.640   2.753   6.445
  235PEN    C23 8447   0.658   3.136   5.620
  235PEN    H24 8448   0.846   3.062   5.575
  235PEN    H25 8449   0.482   3.188   5.699
  235PEN    H26 8450   0.239   2.989   6.372
  235PEN    C27 8451   0.340   2.876   6.506
  235PEN    C28 8452   0.480   2.738   6.654
  235PEN    H29 8453   0.644   3.180   5.537
  235PEN    C30 8454   0.241   2.878   6.610
  235PEN    C31 8455   0.384   2.742   6.750
  235PEN    H32 8456   0.560   2.690   6.671
  235PEN    C33 8457   0.262   2.814   6.727
  235PEN    H34 8458   0.160   2.925   6.596
  235PEN    H35 8459   0.398   2.698   6.833
  235PEN    H36 8460   0.196   2.816   6.795
  236PEN     C1 8461   0.589   4.918   4.879
  236PEN     C2 8462   0.491   4.918   4.980
  236PEN     C3 8463   0.714   4.845   4.902
  236PEN     C4 8464   0.572   4.986   4.757
  236PEN     C5 8465   0.510   4.852   5.101
  236PEN     H6 8466   0.409   4.965   4.966
  236PEN     C7 8467   0.731   4.777   5.024
  236PEN     C8 8468   0.811   4.844   4.801
  236PEN     C9 8469   0.670   4.985   4.657
  236PEN    H10 8470   0.491   5.033   4.744
  236PEN    C11 8471   0.412   4.854   5.204
  236PEN    C12 8472   0.633   4.780   5.123
  236PEN    H13 8473   0.811   4.728   5.039
  236PEN    H14 8474   0.893   4.797   4.814
  236PEN    C15 8475   0.794   4.912   4.680
  236PEN    C16 8476   0.653   5.053   4.534
  236PEN    C17 8477   0.433   4.790   5.321
  236PEN    H18 8478   0.330   4.901   5.191
  236PEN    C19 8479   0.651   4.714   5.249
  236PEN    C20 8480   0.893   4.912   4.578
  236PEN    C21 8481   0.750   5.050   4.435
  236PEN    H22 8482   0.573   5.102   4.519
  236PEN    C23 8483   0.555   4.718   5.344
  236PEN    H24 8484   0.366   4.792   5.389
  236PEN    H25 8485   0.731   4.666   5.265
  236PEN    H26 8486   0.974   4.865   4.593
  236PEN    C27 8487   0.873   4.978   4.458
  236PEN    C28 8488   0.733   5.116   4.310
  236PEN    H29 8489   0.569   4.674   5.427
  236PEN    C30 8490   0.971   4.976   4.354
  236PEN    C31 8491   0.829   5.112   4.214
  236PEN    H32 8492   0.653   5.164   4.294
  236PEN    C33 8493   0.950   5.040   4.237
  236PEN    H34 8494   1.053   4.929   4.368
  236PEN    H35 8495   0.815   5.156   4.131
  236PEN    H36 8496   1.017   5.038   4.170
  237PEN     C1 8497   0.697   3.704   6.086
  237PEN     C2 8498   0.795   3.704   5.984
  237PEN     C3 8499   0.573   3.777   6.063
  237PEN     C4 8500   0.714   3.636   6.207
  237PEN     C5 8501   0.776   3.770   5.864
  237PEN     H6 8502   0.877   3.657   5.998
  237PEN     C7 8503   0.556   3.845   5.940
  237PEN     C8 8504   0.475   3.778   6.163
  237PEN     C9 8505   0.617   3.637   6.307
  237PEN    H10 8506   0.795   3.589   6.220
  237PEN    C11 8507   0.874   3.768   5.760
  237PEN    C12 8508   0.653   3.842   5.841
  237PEN    H13 8509   0.475   3.894   5.925
  237PEN    H14 8510   0.394   3.825   6.150
  237PEN    C15 8511   0.492   3.710   6.284
  237PEN    C16 8512   0.634   3.569   6.430
  237PEN    C17 8513   0.853   3.832   5.643
  237PEN    H18 8514   0.956   3.721   5.774
  237PEN    C19 8515   0.636   3.908   5.716
  237PEN    C20 8516   0.394   3.710   6.386
  237PEN    C21 8517   0.536   3.572   6.529
  237PEN    H22 8518   0.714   3.520   6.445
  237PEN    C23 8519   0.731   3.904   5.620
  237PEN    H24 8520   0.920   3.830   5.575
  237PEN    H25 8521   0.555   3.956   5.699
  237PEN    H26 8522   0.312   3.757   6.372
  237PEN    C27 8523   0.413   3.644   6.506
  237PEN    C28 8524   0.554   3.506   6.654
  237PEN    H29 8525   0.718   3.948   5.537
  237PEN    C30 8526   0.315   3.646   6.610
  237PEN    C31 8527   0.458   3.510   6.750
  237PEN    H32 8528   0.634   3.458   6.671
  237PEN    C33 8529   0.336   3.582   6.727
  237PEN    H34 8530   0.233   3.693   6.596
  237PEN    H35 8531   0.472   3.466   6.833
  237PEN    H36 8532   0.269   3.584   6.795
  238PEN     C1 8533   0.442   3.382   4.879
  238PEN     C2 8534   0.344   3.383   4.980
  238PEN     C3 8535   0.566   3.309   4.902
  238PEN     C4 8536   0.425   3.450   4.757
  238PEN     C5 8537   0.363   3.317   5.101
  238PEN     H6 8538   0.262   3.429   4.966
  238PEN     C7 8539   0.583   3.241   5.024
  238PEN     C8 8540   0.664   3.309   4.801
  238PEN     C9 8541   0.523   3.450   4.657
  238PEN    H10 8542   0.344   3.497   4.744
  238PEN    C11 8543   0.265   3.318   5.204
  238PEN    C12 8544   0.486   3.244   5.123
  238PEN    H13 8545   0.664   3.193   5.039
  238PEN    H14 8546   0.745   3.261   4.814
  238PEN    C15 8547   0.647   3.377   4.680
  238PEN    C16 8548   0.505   3.517   4.534
  238PEN    C17 8549   0.286   3.254   5.321
  238PEN    H18 8550   0.183   3.365   5.191
  238PEN    C19 8551   0.503   3.178   5.249
  238PEN    C20 8552   0.745   3.376   4.578
  238PEN    C21 8553   0.603   3.514   4.435
  238PEN    H22 8554   0.425   3.566   4.519
  238PEN    C23 8555   0.408   3.182   5.344
  238PEN    H24 8556   0.219   3.256   5.389
  238PEN    H25 8557   0.584   3.130   5.265
  238PEN    H26 8558   0.827   3.329   4.593
  238PEN    C27 8559   0.726   3.442   4.458
  238PEN    C28 8560   0.586   3.580   4.310
  238PEN    H29 8561   0.421   3.138   5.427
  238PEN    C30 8562   0.824   3.440   4.354
  238PEN    C31 8563   0.681   3.576   4.214
  238PEN    H32 8564   0.505   3.629   4.294
  238PEN    C33 8565   0.803   3.505   4.237
  238PEN    H34 8566   0.906   3.393   4.368
  238PEN    H35 8567   0.667   3.621   4.131
  238PEN    H36 8568   0.870   3.502   4.170
  239PEN     C1 8569   0.670   3.817   3.274
  239PEN     C2 8570   0.769   3.816   3.172
  239PEN     C3 8571   0.546   3.890   3.251
  239PEN     C4 8572   0.687   3.749   3.396
  239PEN     C5 8573   0.749   3.882   3.052
  239PEN     H6 8574   0.850   3.770   3.187
  239PEN     C7 8575   0.529   3.957   3.129
  239PEN     C8 8576   0.448   3.890   3.352
  239PEN     C9 8577   0.590   3.749   3.496
  239PEN    H10 8578   0.769   3.702   3.409
  239PEN    C11 8579   0.848   3.881   2.949
  239PEN    C12 8580   0.626   3.955   3.030
  239PEN    H13 8581   0.449   4.006   3.114
  239PEN    H14 8582   0.367   3.937   3.338
  239PEN    C15 8583   0.465   3.822   3.473
  239PEN    C16 8584   0.607   3.682   3.619
  239PEN    C17 8585   0.827   3.945   2.831
  239PEN    H18 8586   0.929   3.834   2.962
  239PEN    C19 8587   0.609   4.021   2.904
  239PEN    C20 8588   0.367   3.823   3.575
  239PEN    C21 8589   0.510   3.684   3.717
  239PEN    H22 8590   0.687   3.633   3.634
  239PEN    C23 8591   0.705   4.016   2.809
  239PEN    H24 8592   0.893   3.943   2.764
  239PEN    H25 8593   0.529   4.069   2.888
  239PEN    H26 8594   0.286   3.869   3.560
  239PEN    C27 8595   0.387   3.757   3.695
  239PEN    C28 8596   0.527   3.618   3.843
  239PEN    H29 8597   0.691   4.061   2.726
  239PEN    C30 8598   0.288   3.758   3.799
  239PEN    C31 8599   0.431   3.623   3.939
  239PEN    H32 8600   0.607   3.570   3.859
  239PEN    C33 8601   0.309   3.694   3.916
  239PEN    H34 8602   0.207   3.805   3.785
  239PEN    H35 8603   0.445   3.578   4.022
  239PEN    H36 8604   0.243   3.696   3.983
  240PEN     C1 8605   0.144   0.863   0.662
  240PEN     C2 8606   0.046   0.864   0.763
  240PEN     C3 8607   0.269   0.790   0.685
  240PEN     C4 8608   0.127   0.931   0.540
  240PEN     C5 8609   0.066   0.798   0.883
  240PEN     H6 8610  -0.035   0.911   0.749
  240PEN     C7 8611   0.286   0.723   0.807
  240PEN     C8 8612   0.366   0.790   0.584
  240PEN     C9 8613   0.225   0.931   0.440
  240PEN    H10 8614   0.046   0.979   0.527
  240PEN    C11 8615  -0.033   0.799   0.987
  240PEN    C12 8616   0.189   0.725   0.906
  240PEN    H13 8617   0.366   0.674   0.822
  240PEN    H14 8618   0.448   0.743   0.597
  240PEN    C15 8619   0.349   0.858   0.463
  240PEN    C16 8620   0.208   0.998   0.317
  240PEN    C17 8621  -0.012   0.735   1.104
  240PEN    H18 8622  -0.114   0.846   0.974
  240PEN    C19 8623   0.206   0.659   1.031
  240PEN    C20 8624   0.448   0.857   0.361
  240PEN    C21 8625   0.305   0.996   0.218
  240PEN    H22 8626   0.128   1.047   0.302
  240PEN    C23 8627   0.110   0.664   1.127
  240PEN    H24 8628  -0.078   0.737   1.172
  240PEN    H25 8629   0.286   0.611   1.048
  240PEN    H26 8630   0.529   0.811   0.376
  240PEN    C27 8631   0.428   0.923   0.241
  240PEN    C28 8632   0.288   1.062   0.093
  240PEN    H29 8633   0.124   0.619   1.210
  240PEN    C30 8634   0.527   0.922   0.137
  240PEN    C31 8635   0.384   1.057  -0.003
  240PEN    H32 8636   0.208   1.110   0.076
  240PEN    C33 8637   0.506   0.986   0.020
  240PEN    H34 8638   0.608   0.875   0.151
  240PEN    H35 8639   0.370   1.102  -0.086
  240PEN    H36 8640   0.572   0.984  -0.048
  241PEN     C1 8641   0.450   1.513   3.274
  241PEN     C2 8642   0.548   1.513   3.172
  241PEN     C3 8643   0.325   1.586   3.251
  241PEN     C4 8644   0.467   1.445   3.396
  241PEN     C5 8645   0.528   1.579   3.052
  241PEN     H6 8646   0.629   1.466   3.187
  241PEN     C7 8647   0.308   1.654   3.129
  241PEN     C8 8648   0.228   1.587   3.352
  241PEN     C9 8649   0.369   1.446   3.496
  241PEN    H10 8650   0.548   1.398   3.409
  241PEN    C11 8651   0.627   1.577   2.949
  241PEN    C12 8652   0.405   1.651   3.030
  241PEN    H13 8653   0.228   1.703   3.114
  241PEN    H14 8654   0.146   1.634   3.338
  241PEN    C15 8655   0.245   1.519   3.473
  241PEN    C16 8656   0.386   1.378   3.619
  241PEN    C17 8657   0.606   1.641   2.831
  241PEN    H18 8658   0.708   1.530   2.962
  241PEN    C19 8659   0.388   1.717   2.904
  241PEN    C20 8660   0.146   1.519   3.575
  241PEN    C21 8661   0.289   1.381   3.717
  241PEN    H22 8662   0.466   1.329   3.634
  241PEN    C23 8663   0.484   1.713   2.809
  241PEN    H24 8664   0.672   1.639   2.764
  241PEN    H25 8665   0.308   1.765   2.888
  241PEN    H26 8666   0.065   1.566   3.560
  241PEN    C27 8667   0.166   1.453   3.695
  241PEN    C28 8668   0.306   1.315   3.843
  241PEN    H29 8669   0.470   1.757   2.726
  241PEN    C30 8670   0.067   1.455   3.799
  241PEN    C31 8671   0.210   1.319   3.939
  241PEN    H32 8672   0.386   1.267   3.859
  241PEN    C33 8673   0.088   1.391   3.916
  241PEN    H34 8674  -0.014   1.502   3.785
  241PEN    H35 8675   0.224   1.275   4.022
  241PEN    H36 8676   0.022   1.393   3.983
  242PEN     C1 8677   0.218   1.631   0.662
  242PEN     C2 8678   0.120   1.632   0.763
  242PEN     C3 8679   0.342   1.558   0.685
  242PEN     C4 8680   0.201   1.699   0.540
  242PEN     C5 8681   0.139   1.566   0.883
  242PEN     H6 8682   0.038   1.678   0.749
  242PEN     C7 8683   0.359   1.491   0.807
  242PEN     C8 8684   0.440   1.558   0.584
  242PEN     C9 8685   0.299   1.699   0.440
  242PEN    H10 8686   0.120   1.746   0.527
  242PEN    C11 8687   0.041   1.567   0.987
  242PEN    C12 8688   0.262   1.493   0.906
  242PEN    H13 8689   0.440   1.442   0.822
  242PEN    H14 8690   0.521   1.510   0.597
  242PEN    C15 8691   0.423   1.626   0.463
  242PEN    C16 8692   0.281   1.766   0.317
  242PEN    C17 8693   0.062   1.503   1.104
  242PEN    H18 8694  -0.041   1.614   0.974
  242PEN    C19 8695   0.279   1.427   1.031
  242PEN    C20 8696   0.521   1.625   0.361
  242PEN    C21 8697   0.379   1.764   0.218
  242PEN    H22 8698   0.201   1.815   0.302
  242PEN    C23 8699   0.184   1.432   1.127
  242PEN    H24 8700  -0.005   1.505   1.172
  242PEN    H25 8701   0.360   1.379   1.048
  242PEN    H26 8702   0.603   1.578   0.376
  242PEN    C27 8703   0.502   1.691   0.241
  242PEN    C28 8704   0.362   1.830   0.093
  242PEN    H29 8705   0.197   1.387   1.210
  242PEN    C30 8706   0.600   1.689   0.137
  242PEN    C31 8707   0.457   1.825  -0.003
  242PEN    H32 8708   0.281   1.878   0.076
  242PEN    C33 8709   0.579   1.754   0.020
  242PEN    H34 8710   0.682   1.643   0.151
  242PEN    H35 8711   0.443   1.870  -0.086
  242PEN    H36 8712   0.646   1.751  -0.048
  243PEN     C1 8713   0.439   3.935   0.662
  243PEN     C2 8714   0.340   3.935   0.763
  243PEN     C3 8715   0.563   3.862   0.685
  243PEN     C4 8716   0.422   4.003   0.540
  243PEN     C5 8717   0.360   3.869   0.883
  243PEN     H6 8718   0.259   3.982   0.749
  243PEN     C7 8719   0.580   3.794   0.807
  243PEN     C8 8720   0.661   3.861   0.584
  243PEN     C9 8721   0.519   4.002   0.440
  243PEN    H10 8722   0.340   4.050   0.527
  243PEN    C11 8723   0.262   3.871   0.987
  243PEN    C12 8724   0.483   3.797   0.906
  243PEN    H13 8725   0.660   3.745   0.822
  243PEN    H14 8726   0.742   3.814   0.597
  243PEN    C15 8727   0.644   3.929   0.463
  243PEN    C16 8728   0.502   4.070   0.317
  243PEN    C17 8729   0.283   3.807   1.104
  243PEN    H18 8730   0.180   3.918   0.974
  243PEN    C19 8731   0.500   3.731   1.031
  243PEN    C20 8732   0.742   3.929   0.361
  243PEN    C21 8733   0.600   4.067   0.218
  243PEN    H22 8734   0.422   4.119   0.302
  243PEN    C23 8735   0.404   3.735   1.127
  243PEN    H24 8736   0.216   3.809   1.172
  243PEN    H25 8737   0.580   3.683   1.048
  243PEN    H26 8738   0.824   3.882   0.376
  243PEN    C27 8739   0.723   3.995   0.241
  243PEN    C28 8740   0.582   4.133   0.093
  243PEN    H29 8741   0.418   3.691   1.210
  243PEN    C30 8742   0.821   3.993   0.137
  243PEN    C31 8743   0.678   4.129  -0.003
  243PEN    H32 8744   0.502   4.181   0.076
  243PEN    C33 8745   0.800   4.057   0.020
  243PEN    H34 8746   0.903   3.946   0.151
  243PEN    H35 8747   0.664   4.173  -0.086
  243PEN    H36 8748   0.867   4.055  -0.048
  244PEN     C1 8749   0.292   2.399   0.662
  244PEN     C2 8750   0.193   2.399   0.763
  244PEN     C3 8751   0.416   2.326   0.685
  244PEN     C4 8752   0.275   2.467   0.540
  244PEN     C5 8753   0.213   2.334   0.883
  244PEN     H6 8754   0.112   2.446   0.749
  244PEN     C7 8755   0.433   2.258   0.807
  244PEN     C8 8756   0.514   2.326   0.584
  244PEN     C9 8757   0.372   2.466   0.440
  244PEN    H10 8758   0.193   2.514   0.527
  244PEN    C11 8759   0.114   2.335   0.987
  244PEN    C12 8760   0.336   2.261   0.906
  244PEN    H13 8761   0.513   2.210   0.822
  244PEN    H14 8762   0.595   2.278   0.597
  244PEN    C15 8763   0.497   2.394   0.463
  244PEN    C16 8764   0.355   2.534   0.317
  244PEN    C17 8765   0.135   2.271   1.104
  244PEN    H18 8766   0.033   2.382   0.974
  244PEN    C19 8767   0.353   2.195   1.031
  244PEN    C20 8768   0.595   2.393   0.361
  244PEN    C21 8769   0.452   2.531   0.218
  244PEN    H22 8770   0.275   2.583   0.302
  244PEN    C23 8771   0.257   2.199   1.127
  244PEN    H24 8772   0.069   2.273   1.172
  244PEN    H25 8773   0.433   2.147   1.048
  244PEN    H26 8774   0.676   2.346   0.376
  244PEN    C27 8775   0.575   2.459   0.241
  244PEN    C28 8776   0.435   2.597   0.093
  244PEN    H29 8777   0.271   2.155   1.210
  244PEN    C30 8778   0.674   2.457   0.137
  244PEN    C31 8779   0.531   2.593  -0.003
  244PEN    H32 8780   0.355   2.646   0.076
  244PEN    C33 8781   0.653   2.522   0.020
  244PEN    H34 8782   0.755   2.410   0.151
  244PEN    H35 8783   0.517   2.638  -0.086
  244PEN    H36 8784   0.719   2.519  -0.048
  245PEN     C1 8785   0.547   2.721   1.869
  245PEN     C2 8786   0.645   2.721   1.767
  245PEN     C3 8787   0.422   2.794   1.846
  245PEN     C4 8788   0.564   2.653   1.990
  245PEN     C5 8789   0.626   2.787   1.647
  245PEN     H6 8790   0.727   2.674   1.781
  245PEN     C7 8791   0.405   2.862   1.723
  245PEN     C8 8792   0.325   2.795   1.946
  245PEN     C9 8793   0.466   2.654   2.090
  245PEN    H10 8794   0.645   2.606   2.003
  245PEN    C11 8795   0.724   2.785   1.543
  245PEN    C12 8796   0.502   2.859   1.624
  245PEN    H13 8797   0.325   2.911   1.708
  245PEN    H14 8798   0.243   2.842   1.933
  245PEN    C15 8799   0.342   2.727   2.067
  245PEN    C16 8800   0.483   2.586   2.213
  245PEN    C17 8801   0.703   2.849   1.426
  245PEN    H18 8802   0.805   2.738   1.557
  245PEN    C19 8803   0.485   2.925   1.499
  245PEN    C20 8804   0.243   2.727   2.169
  245PEN    C21 8805   0.386   2.589   2.312
  245PEN    H22 8806   0.563   2.537   2.228
  245PEN    C23 8807   0.581   2.921   1.403
  245PEN    H24 8808   0.770   2.847   1.358
  245PEN    H25 8809   0.405   2.973   1.482
  245PEN    H26 8810   0.162   2.774   2.155
  245PEN    C27 8811   0.263   2.661   2.289
  245PEN    C28 8812   0.403   2.523   2.437
  245PEN    H29 8813   0.567   2.965   1.320
  245PEN    C30 8814   0.164   2.663   2.393
  245PEN    C31 8815   0.307   2.527   2.533
  245PEN    H32 8816   0.483   2.475   2.454
  245PEN    C33 8817   0.186   2.599   2.510
  245PEN    H34 8818   0.083   2.710   2.379
  245PEN    H35 8819   0.321   2.483   2.616
  245PEN    H36 8820   0.119   2.601   2.578
  246PEN     C1 8821   0.597   3.049   3.274
  246PEN     C2 8822   0.695   3.048   3.172
  246PEN     C3 8823   0.472   3.122   3.251
  246PEN     C4 8824   0.614   2.981   3.396
  246PEN     C5 8825   0.676   3.114   3.052
  246PEN     H6 8826   0.777   3.002   3.187
  246PEN     C7 8827   0.455   3.190   3.129
  246PEN     C8 8828   0.375   3.122   3.352
  246PEN     C9 8829   0.516   2.981   3.496
  246PEN    H10 8830   0.695   2.934   3.409
  246PEN    C11 8831   0.774   3.113   2.949
  246PEN    C12 8832   0.553   3.187   3.030
  246PEN    H13 8833   0.375   3.238   3.114
  246PEN    H14 8834   0.293   3.170   3.338
  246PEN    C15 8835   0.392   3.054   3.473
  246PEN    C16 8836   0.533   2.914   3.619
  246PEN    C17 8837   0.753   3.177   2.831
  246PEN    H18 8838   0.856   3.066   2.962
  246PEN    C19 8839   0.535   3.253   2.904
  246PEN    C20 8840   0.293   3.055   3.575
  246PEN    C21 8841   0.436   2.916   3.717
  246PEN    H22 8842   0.613   2.865   3.634
  246PEN    C23 8843   0.631   3.248   2.809
  246PEN    H24 8844   0.820   3.175   2.764
  246PEN    H25 8845   0.455   3.301   2.888
  246PEN    H26 8846   0.212   3.102   3.560
  246PEN    C27 8847   0.313   2.989   3.695
  246PEN    C28 8848   0.453   2.850   3.843
  246PEN    H29 8849   0.617   3.293   2.726
  246PEN    C30 8850   0.215   2.991   3.799
  246PEN    C31 8851   0.357   2.855   3.939
  246PEN    H32 8852   0.534   2.802   3.859
  246PEN    C33 8853   0.236   2.926   3.916
  246PEN    H34 8854   0.133   3.037   3.785
  246PEN    H35 8855   0.371   2.810   4.022
  246PEN    H36 8856   0.169   2.929   3.983
  247PEN     C1 8857   0.620   3.489   1.869
  247PEN     C2 8858   0.719   3.489   1.767
  247PEN     C3 8859   0.496   3.562   1.846
  247PEN     C4 8860   0.637   3.421   1.990
  247PEN     C5 8861   0.699   3.555   1.647
  247PEN     H6 8862   0.800   3.442   1.781
  247PEN     C7 8863   0.479   3.630   1.723
  247PEN     C8 8864   0.398   3.563   1.946
  247PEN     C9 8865   0.540   3.422   2.090
  247PEN    H10 8866   0.719   3.374   2.003
  247PEN    C11 8867   0.798   3.553   1.543
  247PEN    C12 8868   0.576   3.627   1.624
  247PEN    H13 8869   0.399   3.678   1.708
  247PEN    H14 8870   0.317   3.610   1.933
  247PEN    C15 8871   0.415   3.495   2.067
  247PEN    C16 8872   0.557   3.354   2.213
  247PEN    C17 8873   0.776   3.617   1.426
  247PEN    H18 8874   0.879   3.506   1.557
  247PEN    C19 8875   0.559   3.693   1.499
  247PEN    C20 8876   0.317   3.495   2.169
  247PEN    C21 8877   0.460   3.357   2.312
  247PEN    H22 8878   0.637   3.305   2.228
  247PEN    C23 8879   0.655   3.689   1.403
  247PEN    H24 8880   0.843   3.615   1.358
  247PEN    H25 8881   0.479   3.741   1.482
  247PEN    H26 8882   0.235   3.542   2.155
  247PEN    C27 8883   0.336   3.429   2.289
  247PEN    C28 8884   0.477   3.291   2.437
  247PEN    H29 8885   0.641   3.733   1.320
  247PEN    C30 8886   0.238   3.431   2.393
  247PEN    C31 8887   0.381   3.295   2.533
  247PEN    H32 8888   0.557   3.243   2.454
  247PEN    C33 8889   0.259   3.366   2.510
  247PEN    H34 8890   0.157   3.478   2.379
  247PEN    H35 8891   0.395   3.250   2.616
  247PEN    H36 8892   0.193   3.369   2.578
  248PEN     C1 8893   0.771   4.472   6.086
  248PEN     C2 8894   0.869   4.472   5.984
  248PEN     C3 8895   0.646   4.545   6.063
  248PEN     C4 8896   0.788   4.404   6.207
  248PEN     C5 8897   0.850   4.538   5.864
  248PEN     H6 8898   0.951   4.425   5.998
  248PEN     C7 8899   0.629   4.613   5.940
  248PEN     C8 8900   0.549   4.546   6.163
  248PEN     C9 8901   0.690   4.405   6.307
  248PEN    H10 8902   0.869   4.357   6.220
  248PEN    C11 8903   0.948   4.536   5.760
  248PEN    C12 8904   0.726   4.610   5.841
  248PEN    H13 8905   0.549   4.661   5.925
  248PEN    H14 8906   0.467   4.593   6.150
  248PEN    C15 8907   0.566   4.478   6.284
  248PEN    C16 8908   0.707   4.337   6.430
  248PEN    C17 8909   0.927   4.600   5.643
  248PEN    H18 8910   1.029   4.489   5.774
  248PEN    C19 8911   0.709   4.676   5.716
  248PEN    C20 8912   0.467   4.478   6.386
  248PEN    C21 8913   0.610   4.340   6.529
  248PEN    H22 8914   0.787   4.288   6.445
  248PEN    C23 8915   0.805   4.672   5.620
  248PEN    H24 8916   0.993   4.598   5.575
  248PEN    H25 8917   0.629   4.724   5.699
  248PEN    H26 8918   0.386   4.525   6.372
  248PEN    C27 8919   0.487   4.412   6.506
  248PEN    C28 8920   0.627   4.274   6.654
  248PEN    H29 8921   0.791   4.716   5.537
  248PEN    C30 8922   0.388   4.414   6.610
  248PEN    C31 8923   0.531   4.278   6.750
  248PEN    H32 8924   0.707   4.226   6.671
  248PEN    C33 8925   0.410   4.349   6.727
  248PEN    H34 8926   0.307   4.461   6.596
  248PEN    H35 8927   0.545   4.234   6.833
  248PEN    H36 8928   0.343   4.352   6.795
  249PEN     C1 8929   0.516   4.150   4.879
  249PEN     C2 8930   0.417   4.150   4.980
  249PEN     C3 8931   0.640   4.077   4.902
  249PEN     C4 8932   0.499   4.218   4.757
  249PEN     C5 8933   0.437   4.084   5.101
  249PEN     H6 8934   0.336   4.197   4.966
  249PEN     C7 8935   0.657   4.009   5.024
  249PEN     C8 8936   0.738   4.076   4.801
  249PEN     C9 8937   0.596   4.217   4.657
  249PEN    H10 8938   0.417   4.265   4.744
  249PEN    C11 8939   0.338   4.086   5.204
  249PEN    C12 8940   0.560   4.012   5.123
  249PEN    H13 8941   0.737   3.961   5.039
  249PEN    H14 8942   0.819   4.029   4.814
  249PEN    C15 8943   0.721   4.144   4.680
  249PEN    C16 8944   0.579   4.285   4.534
  249PEN    C17 8945   0.359   4.022   5.321
  249PEN    H18 8946   0.257   4.133   5.191
  249PEN    C19 8947   0.577   3.946   5.249
  249PEN    C20 8948   0.819   4.144   4.578
  249PEN    C21 8949   0.676   4.282   4.435
  249PEN    H22 8950   0.499   4.334   4.519
  249PEN    C23 8951   0.481   3.950   5.344
  249PEN    H24 8952   0.293   4.024   5.389
  249PEN    H25 8953   0.657   3.898   5.265
  249PEN    H26 8954   0.900   4.097   4.593
  249PEN    C27 8955   0.799   4.210   4.458
  249PEN    C28 8956   0.659   4.348   4.310
  249PEN    H29 8957   0.495   3.906   5.427
  249PEN    C30 8958   0.898   4.208   4.354
  249PEN    C31 8959   0.755   4.344   4.214
  249PEN    H32 8960   0.579   4.396   4.294
  249PEN    C33 8961   0.877   4.273   4.237
  249PEN    H34 8962   0.979   4.161   4.368
  249PEN    H35 8963   0.741   4.389   4.131
  249PEN    H36 8964   0.943   4.270   4.170
  250PEN     C1 8965   0.365   3.167   0.662
  250PEN     C2 8966   0.267   3.167   0.763
  250PEN     C3 8967   0.490   3.094   0.685
  250PEN     C4 8968   0.348   3.235   0.540
  250PEN     C5 8969   0.286   3.101   0.883
  250PEN     H6 8970   0.185   3.214   0.749
  250PEN     C7 8971   0.507   3.026   0.807
  250PEN     C8 8972   0.587   3.093   0.584
  250PEN     C9 8973   0.446   3.234   0.440
  250PEN    H10 8974   0.267   3.282   0.527
  250PEN    C11 8975   0.188   3.103   0.987
  250PEN    C12 8976   0.409   3.029   0.906
  250PEN    H13 8977   0.587   2.977   0.822
  250PEN    H14 8978   0.669   3.046   0.597
  250PEN    C15 8979   0.570   3.161   0.463
  250PEN    C16 8980   0.429   3.302   0.317
  250PEN    C17 8981   0.209   3.039   1.104
  250PEN    H18 8982   0.106   3.150   0.974
  250PEN    C19 8983   0.427   2.963   1.031
  250PEN    C20 8984   0.669   3.161   0.361
  250PEN    C21 8985   0.526   3.299   0.218
  250PEN    H22 8986   0.349   3.351   0.302
  250PEN    C23 8987   0.331   2.967   1.127
  250PEN    H24 8988   0.142   3.041   1.172
  250PEN    H25 8989   0.507   2.915   1.048
  250PEN    H26 8990   0.750   3.114   0.376
  250PEN    C27 8991   0.649   3.227   0.241
  250PEN    C28 8992   0.509   3.365   0.093
  250PEN    H29 8993   0.345   2.923   1.210
  250PEN    C30 8994   0.747   3.225   0.137
  250PEN    C31 8995   0.605   3.361  -0.003
  250PEN    H32 8996   0.429   3.413   0.076
  250PEN    C33 8997   0.726   3.290   0.020
  250PEN    H34 8998   0.829   3.178   0.151
  250PEN    H35 8999   0.591   3.405  -0.086
  250PEN    H36 9000   0.793   3.287  -0.048
   3.13765   3.83930   7.02841   0.00000   0.00000   0.36806   0.00000   0.25063   1.63842
