* EXECUTING CHARMM SCRIPT FROM PYTHON
*  DATE:    11/14/25     13:30:29      CREATED BY USER: takahashi
*
      1944  EXT
         1         1  MOL       C1             -9.7087344420        9.0815305263        4.7378480014  SYS       1               0.0000000000
         2         1  MOL       C2            -10.8059645181        9.0331708204        5.6330273320  SYS       1               0.0000000000
         3         1  MOL       C3             -8.4738983696        8.3812783491        5.0814424703  SYS       1               0.0000000000
         4         1  MOL       C4             -9.8009267362        9.7828372697        3.5283311731  SYS       1               0.0000000000
         5         1  MOL       C5            -10.7159027891        8.3105357824        6.8093167454  SYS       1               0.0000000000
         6         1  MOL       H6            -11.6118940424        9.4848628905        5.4112017582  SYS       1               0.0000000000
         7         1  MOL       C7             -8.4034398872        7.6596136301        6.2898532203  SYS       1               0.0000000000
         8         1  MOL       C8             -7.3827999538        8.4320657265        4.2060068821  SYS       1               0.0000000000
         9         1  MOL       C9             -8.7104785020        9.8298027448        2.6518726969  SYS       1               0.0000000000
        10         1  MOL       H10           -10.6078991078       10.2305438267        3.3031533582  SYS       1               0.0000000000
        11         1  MOL       C11           -11.8276030788        8.2192379560        7.7042830220  SYS       1               0.0000000000
        12         1  MOL       C12            -9.4955945956        7.6114185453        7.1447399043  SYS       1               0.0000000000
        13         1  MOL       H13            -7.6042785574        7.1964730538        6.5122944154  SYS       1               0.0000000000
        14         1  MOL       H14            -6.5770772483        7.9810640353        4.4290741492  SYS       1               0.0000000000
        15         1  MOL       C15            -7.4694793178        9.1439758761        3.0022909150  SYS       1               0.0000000000
        16         1  MOL       C16            -8.7919098603       10.5366298020        1.4354084160  SYS       1               0.0000000000
        17         1  MOL       C17           -11.7412314438        7.4843460520        8.8381241065  SYS       1               0.0000000000
        18         1  MOL       H18           -12.6364648251        8.6695855374        7.4919443381  SYS       1               0.0000000000
        19         1  MOL       C19            -9.4485705933        6.8618749551        8.3584462308  SYS       1               0.0000000000
        20         1  MOL       C20            -6.3691942162        9.2079365651        2.1118526695  SYS       1               0.0000000000
        21         1  MOL       C21            -7.6994171315       10.5919394549        0.5813847603  SYS       1               0.0000000000
        22         1  MOL       H22            -9.5980859147       10.9839136215        1.2059406339  SYS       1               0.0000000000
        23         1  MOL       C23           -10.5322022030        6.7959529675        9.1705002314  SYS       1               0.0000000000
        24         1  MOL       H24           -12.4865059103        7.4209998854        9.4233387348  SYS       1               0.0000000000
        25         1  MOL       H25            -8.6541197164        6.3930477574        8.5871067966  SYS       1               0.0000000000
        26         1  MOL       H26            -5.5598844080        8.7629936827        2.3350077336  SYS       1               0.0000000000
        27         1  MOL       C27            -6.4693482883        9.9153235898        0.9271408624  SYS       1               0.0000000000
        28         1  MOL       C28            -7.7606000888       11.3191516977       -0.6452076304  SYS       1               0.0000000000
        29         1  MOL       H29           -10.5000383782        6.2835502303        9.9699774510  SYS       1               0.0000000000
        30         1  MOL       C30            -5.3653667590        9.9959121445        0.0216532992  SYS       1               0.0000000000
        31         1  MOL       C31            -6.6840418771       11.3753483830       -1.4673385311  SYS       1               0.0000000000
        32         1  MOL       H32            -8.5625345883       11.7724042502       -0.8790878963  SYS       1               0.0000000000
        33         1  MOL       C33            -5.4687147146       10.7007322550       -1.1297239552  SYS       1               0.0000000000
        34         1  MOL       H34            -4.5524114635        9.5531217808        0.2342523873  SYS       1               0.0000000000
        35         1  MOL       H35            -6.7284869728       11.8606871945       -2.2829522657  SYS       1               0.0000000000
        36         1  MOL       H36            -4.7310564869       10.7500426947       -1.7258378271  SYS       1               0.0000000000
        37         2  MOL       C1             -8.7279914482        4.0639553177       16.1239821148  SYS       2               0.0000000000
        38         2  MOL       C2             -7.6764139978        4.1174825732       15.1758691289  SYS       2               0.0000000000
        39         2  MOL       C3             -9.9633887666        4.7985197330       15.8642919485  SYS       2               0.0000000000
        40         2  MOL       C4             -8.6022788259        3.3067061256       17.2961730221  SYS       2               0.0000000000
        41         2  MOL       C5             -7.8106519556        4.8725514612       14.0244263632  SYS       2               0.0000000000
        42         2  MOL       H6             -6.8752279137        3.6330303944       15.3376147764  SYS       2               0.0000000000
        43         2  MOL       C7            -10.0755819750        5.5622639037       14.6852548707  SYS       2               0.0000000000
        44         2  MOL       C8            -11.0187265400        4.7273008125       16.7811630570  SYS       2               0.0000000000
        45         2  MOL       C9             -9.6587815366        3.2316236082       18.2113927802  SYS       2               0.0000000000
        46         2  MOL       H10            -7.7980273609        2.8297444811       17.4636179057  SYS       2               0.0000000000
        47         2  MOL       C11            -6.7537806757        4.9481046960       13.0639617515  SYS       2               0.0000000000
        48         2  MOL       C12            -9.0270341961        5.6141193319       13.7776126031  SYS       2               0.0000000000
        49         2  MOL       H13           -10.8750099886        6.0470682515       14.5163830100  SYS       2               0.0000000000
        50         2  MOL       H14           -11.8254488509        5.1988999829       16.6104470800  SYS       2               0.0000000000
        51         2  MOL       C15           -10.9011336158        3.9505750010       17.9413916642  SYS       2               0.0000000000
        52         2  MOL       C16            -9.5491353861        2.4585156616       19.3845520733  SYS       2               0.0000000000
        53         2  MOL       C17            -6.8746849903        5.7319722742       11.9666671048  SYS       2               0.0000000000
        54         2  MOL       H18            -5.9527599277        4.4590405438       13.2100439272  SYS       2               0.0000000000
        55         2  MOL       C19            -9.1157923138        6.4061452781       12.5935827069  SYS       2               0.0000000000
        56         2  MOL       C20           -11.9748529831        3.8456789862       18.8599351257  SYS       2               0.0000000000
        57         2  MOL       C21           -10.6109697811        2.3744716394       20.2741588656  SYS       2               0.0000000000
        58         2  MOL       H22            -8.7432533476        1.9871484704       19.5606350655  SYS       2               0.0000000000
        59         2  MOL       C23            -8.0724004167        6.4776209010       11.7308779724  SYS       2               0.0000000000
        60         2  MOL       H24            -6.1614115033        5.7936927201       11.3426843743  SYS       2               0.0000000000
        61         2  MOL       H25            -9.9085825672        6.9018432234       12.4232772390  SYS       2               0.0000000000
        62         2  MOL       H26           -12.7854517857        4.3103700994       18.6874634836  SYS       2               0.0000000000
        63         2  MOL       C27           -11.8447780160        3.0779323121       20.0034450096  SYS       2               0.0000000000
        64         2  MOL       C28           -10.5148433636        1.5942397341       21.4654219680  SYS       2               0.0000000000
        65         2  MOL       H29            -8.1279327928        7.0258611777       10.9568601071  SYS       2               0.0000000000
        66         2  MOL       C30           -12.9178513534        2.9669130326       20.9422558488  SYS       2               0.0000000000
        67         2  MOL       C31           -11.5630979028        1.5101809916       22.3210687515  SYS       2               0.0000000000
        68         2  MOL       H32            -9.7101657563        1.1245088322       21.6527282004  SYS       2               0.0000000000
        69         2  MOL       C33           -12.7833082634        2.2076722714       22.0551679720  SYS       2               0.0000000000
        70         2  MOL       H34           -13.7318931298        3.4285131820       20.7797157630  SYS       2               0.0000000000
        71         2  MOL       H35           -11.4968448532        0.9823658643       23.1083276780  SYS       2               0.0000000000
        72         2  MOL       H36           -13.5020831252        2.1337763811       22.6714674316  SYS       2               0.0000000000
        73         3  MOL       C1              6.8613025466        4.0235484660      -10.8638685161  SYS       3               0.0000000000
        74         3  MOL       C2              5.7941212092        3.9448517030       -9.9351439350  SYS       3               0.0000000000
        75         3  MOL       C3              8.0973600998        3.2938305100      -10.5938614294  SYS       3               0.0000000000
        76         3  MOL       C4              6.7445188383        4.7901923299      -12.0308647788  SYS       3               0.0000000000
        77         3  MOL       C5              5.9271919082        3.1940237748       -8.7807961067  SYS       3               0.0000000000
        78         3  MOL       H6              4.9869348934        4.4149508216      -10.1089592959  SYS       3               0.0000000000
        79         3  MOL       C7              8.2104204066        2.5407511907       -9.4080664174  SYS       3               0.0000000000
        80         3  MOL       C8              9.1486332263        3.3473179280      -11.5165891735  SYS       3               0.0000000000
        81         3  MOL       C9              7.7982930326        4.8487244622      -12.9504279928  SYS       3               0.0000000000
        82         3  MOL       H10             5.9415102131        5.2677166039      -12.2026155684  SYS       3               0.0000000000
        83         3  MOL       C11             4.8610684238        3.1118666895       -7.8311601803  SYS       3               0.0000000000
        84         3  MOL       C12             7.1555207358        2.4817347813       -8.5082555129  SYS       3               0.0000000000
        85         3  MOL       H13             9.0150286396        2.0685496228       -9.2284296159  SYS       3               0.0000000000
        86         3  MOL       H14             9.9506932213        2.8673529278      -11.3472257407  SYS       3               0.0000000000
        87         3  MOL       C15             9.0267051541        4.1026495549      -12.6904158991  SYS       3               0.0000000000
        88         3  MOL       C16             7.6900725189        5.6101131042      -14.1313583711  SYS       3               0.0000000000
        89         3  MOL       C17             4.9966452848        2.3683834206       -6.7077843222  SYS       3               0.0000000000
        90         3  MOL       H18             4.0517848215        3.5815431364       -7.9943228958  SYS       3               0.0000000000
        91         3  MOL       C19             7.2528911141        1.7195584918       -7.3054603471  SYS       3               0.0000000000
        92         3  MOL       C20            10.0832345822        4.1568312947      -13.6329701154  SYS       3               0.0000000000
        93         3  MOL       C21             8.7362770926        5.6478244840      -15.0423961128  SYS       3               0.0000000000
        94         3  MOL       H22             6.8916924352        6.0949371783      -14.3050620503  SYS       3               0.0000000000
        95         3  MOL       C23             6.2100954970        1.6594652018       -6.4411681674  SYS       3               0.0000000000
        96         3  MOL       H24             4.2829667820        2.3185079497       -6.0832057757  SYS       3               0.0000000000
        97         3  MOL       H25             8.0542773845        1.2449041080       -7.1164628527  SYS       3               0.0000000000
        98         3  MOL       H26            10.8842082319        3.6735296367      -13.4667911859  SYS       3               0.0000000000
        99         3  MOL       C27             9.9557667610        4.9158664247      -14.7825730611  SYS       3               0.0000000000
       100         3  MOL       C28             8.6355606204        6.4059230451      -16.2474905728  SYS       3               0.0000000000
       101         3  MOL       H29             6.2795001187        1.1475013226       -5.6437781208  SYS       3               0.0000000000
       102         3  MOL       C30            11.0200466762        4.9974739690      -15.7343219411  SYS       3               0.0000000000
       103         3  MOL       C31             9.6731714617        6.4557930631      -17.1186458931  SYS       3               0.0000000000
       104         3  MOL       H32             7.8381928308        6.8892898745      -16.4313326596  SYS       3               0.0000000000
       105         3  MOL       C33            10.8869666201        5.7466489420      -16.8542095823  SYS       3               0.0000000000
       106         3  MOL       H34            11.8276328574        4.5237851506      -15.5743799069  SYS       3               0.0000000000
       107         3  MOL       H35             9.6062209647        6.9732194807      -17.9127129092  SYS       3               0.0000000000
       108         3  MOL       H36            11.5996543788        5.8015175165      -17.4795003361  SYS       3               0.0000000000
       109         4  MOL       C1              7.5775973129       -2.6411829817       17.1026784859  SYS       4               0.0000000000
       110         4  MOL       C2              6.5258065223       -2.7521107682       18.0455621982  SYS       4               0.0000000000
       111         4  MOL       C3              8.8467762211       -3.3115688335       17.3728601019  SYS       4               0.0000000000
       112         4  MOL       C4              7.4182289858       -1.9072155610       15.9198196242  SYS       4               0.0000000000
       113         4  MOL       C5              6.7003984476       -3.4882236176       19.2038474955  SYS       4               0.0000000000
       114         4  MOL       H6              5.6970499571       -2.3195651834       17.8757930170  SYS       4               0.0000000000
       115         4  MOL       C7              9.0041439192       -4.0534889815       18.5606356722  SYS       4               0.0000000000
       116         4  MOL       C8              9.8947127576       -3.2228078276       16.4490565146  SYS       4               0.0000000000
       117         4  MOL       C9              8.4618368811       -1.8215140221       14.9908414952  SYS       4               0.0000000000
       118         4  MOL       H10             6.5935479000       -1.4692470712       15.7453623896  SYS       4               0.0000000000
       119         4  MOL       C11             5.6488760772       -3.6152886698       20.1647494884  SYS       4               0.0000000000
       120         4  MOL       C12             7.9583655630       -4.1502471587       19.4677968488  SYS       4               0.0000000000
       121         4  MOL       H13             9.8281277917       -4.4936299186       18.7337386556  SYS       4               0.0000000000
       122         4  MOL       H14            10.7197665913       -3.6597209187       16.6243954509  SYS       4               0.0000000000
       123         4  MOL       C15             9.7289977126       -2.4947377818       15.2634283893  SYS       4               0.0000000000
       124         4  MOL       C16             8.3183919998       -1.0910865728       13.7942128146  SYS       4               0.0000000000
       125         4  MOL       C17             5.8294488632       -4.3447355805       21.2909921124  SYS       4               0.0000000000
       126         4  MOL       H18             4.8162213930       -3.1862201802       20.0074459803  SYS       4               0.0000000000
       127         4  MOL       C19             8.1019698971       -4.9075257507       20.6690532020  SYS       4               0.0000000000
       128         4  MOL       C20            10.7887594039       -2.4007527365       14.3276557009  SYS       4               0.0000000000
       129         4  MOL       C21             9.3690863501       -1.0038283214       12.8917809368  SYS       4               0.0000000000
       130         4  MOL       H22             7.4975072954       -0.6487733923       13.6121538644  SYS       4               0.0000000000
       131         4  MOL       C23             7.0723859856       -5.0053150422       21.5456540789  SYS       4               0.0000000000
       132         4  MOL       H24             5.1256568463       -4.4262089150       21.9234174606  SYS       4               0.0000000000
       133         4  MOL       H25             8.9245579715       -5.3480990345       20.8492775970  SYS       4               0.0000000000
       134         4  MOL       H26            11.6149224136       -2.8344013835       14.5069828727  SYS       4               0.0000000000
       135         4  MOL       C27            10.6250040404       -1.6648912090       13.1676292745  SYS       4               0.0000000000
       136         4  MOL       C28             9.2454653428       -0.2550835262       11.6829761713  SYS       4               0.0000000000
       137         4  MOL       H29             7.1642184220       -5.5181098123       22.3402377613  SYS       4               0.0000000000
       138         4  MOL       C30            11.6949394879       -1.5400498405       12.2269751190  SYS       4               0.0000000000
       139         4  MOL       C31            10.2862499634       -0.1638638775       10.8189847334  SYS       4               0.0000000000
       140         4  MOL       H32             8.4272324319        0.1883483513       11.4903629063  SYS       4               0.0000000000
       141         4  MOL       C33            11.5279346011       -0.8188977112       11.0933213989  SYS       4               0.0000000000
       142         4  MOL       H34            12.5257343579       -1.9667794757       12.3997167758  SYS       4               0.0000000000
       143         4  MOL       H35            10.2042552604        0.3456966326       10.0212505276  SYS       4               0.0000000000
       144         4  MOL       H36            12.2412678373       -0.7422588596       10.4710633196  SYS       4               0.0000000000
       145         5  MOL       C1              8.5191287600       -3.7626279287      -13.3598646892  SYS       5               0.0000000000
       146         5  MOL       C2              9.5829678076       -3.6874981849      -14.2927100882  SYS       5               0.0000000000
       147         5  MOL       C3              7.2614427214       -3.0776239593      -13.6466150806  SYS       5               0.0000000000
       148         5  MOL       C4              8.6665544288       -4.4833784865      -12.1673690625  SYS       5               0.0000000000
       149         5  MOL       C5              9.4419229961       -2.9385147796      -15.4473093767  SYS       5               0.0000000000
       150         5  MOL       H6             10.3973051365       -4.1435108425      -14.1147722535  SYS       5               0.0000000000
       151         5  MOL       C7              7.1435657869       -2.3217234840      -14.8301438736  SYS       5               0.0000000000
       152         5  MOL       C8              6.2008858664       -3.1645072111      -12.7371465399  SYS       5               0.0000000000
       153         5  MOL       C9              7.6136696484       -4.5490837424      -11.2472717604  SYS       5               0.0000000000
       154         5  MOL       H10             9.4852401853       -4.9285055759      -11.9830700732  SYS       5               0.0000000000
       155         5  MOL       C11            10.5151655505       -2.8313427360      -16.3863738234  SYS       5               0.0000000000
       156         5  MOL       C12             8.2091367562       -2.2320033336      -15.7147142323  SYS       5               0.0000000000
       157         5  MOL       H13             6.3351517166       -1.8563138395      -15.0104177306  SYS       5               0.0000000000
       158         5  MOL       H14             5.3825583425       -2.7183896135      -12.9206397906  SYS       5               0.0000000000
       159         5  MOL       C15             6.3487109668       -3.8811746729      -11.5422419377  SYS       5               0.0000000000
       160         5  MOL       C16             7.7600062052       -5.2523593638      -10.0348321024  SYS       5               0.0000000000
       161         5  MOL       C17            10.3872750054       -2.0550626520      -17.4882608477  SYS       5               0.0000000000
       162         5  MOL       H18            11.3276359806       -3.2958965300      -16.2243875335  SYS       5               0.0000000000
       163         5  MOL       C19             8.1233863236       -1.4296677923      -16.8920053770  SYS       5               0.0000000000
       164         5  MOL       C20             5.2891386355       -3.9602570328      -10.6048780754  SYS       5               0.0000000000
       165         5  MOL       C21             6.7216300825       -5.2868128793       -9.1147538899  SYS       5               0.0000000000
       166         5  MOL       H22             8.5811465120       -5.6900518603       -9.8430197261  SYS       5               0.0000000000
       167         5  MOL       C23             9.1779945027       -1.3331620018      -17.7384822488  SYS       5               0.0000000000
       168         5  MOL       H24            11.1068365877       -1.9790871005      -18.1033882924  SYS       5               0.0000000000
       169         5  MOL       H25             7.3228490520       -0.9509933435      -17.0743447306  SYS       5               0.0000000000
       170         5  MOL       H26             4.4643752105       -3.5270467779      -10.7915565964  SYS       5               0.0000000000
       171         5  MOL       C27             5.4631038287       -4.6405349517       -9.4128514896  SYS       5               0.0000000000
       172         5  MOL       C28             6.8771754941       -5.9420458796       -7.8563480557  SYS       5               0.0000000000
       173         5  MOL       H29             9.1189302761       -0.7873720796      -18.5139689858  SYS       5               0.0000000000
       174         5  MOL       C30             4.4135687694       -4.7055444451       -8.4436108618  SYS       5               0.0000000000
       175         5  MOL       C31             5.8607987182       -5.9570838071       -6.9592488459  SYS       5               0.0000000000
       176         5  MOL       H32             7.7019177006       -6.3665240251       -7.6493326460  SYS       5               0.0000000000
       177         5  MOL       C33             4.6085859542       -5.3348806173       -7.2608065402  SYS       5               0.0000000000
       178         5  MOL       H34             3.5802367648       -4.2885885763       -8.6276313800  SYS       5               0.0000000000
       179         5  MOL       H35             5.9688289774       -6.3863463797       -6.1185241536  SYS       5               0.0000000000
       180         5  MOL       H36             3.9119484542       -5.3623624281       -6.6159314511  SYS       5               0.0000000000
       181         6  MOL       C1              7.3001535888      -10.2067740467       15.6372987430  SYS       6               0.0000000000
       182         6  MOL       C2              6.2198721836      -10.2631247326       16.5524026828  SYS       6               0.0000000000
       183         6  MOL       C3              8.5290615468      -10.9332740359       15.9458654189  SYS       6               0.0000000000
       184         6  MOL       C4              7.2105440311       -9.4631321589       14.4531414918  SYS       6               0.0000000000
       185         6  MOL       C5              6.3245532739      -11.0058352463       17.7148966656  SYS       6               0.0000000000
       186         6  MOL       H6              5.4180771904       -9.7916454995       16.3585294488  SYS       6               0.0000000000
       187         6  MOL       C7              8.6172453133      -11.6758895519       17.1403388273  SYS       6               0.0000000000
       188         6  MOL       C8              9.6064381987      -10.8861125280       15.0533980963  SYS       6               0.0000000000
       189         6  MOL       C9              8.2911855198       -9.4034054000       13.5653863146  SYS       6               0.0000000000
       190         6  MOL       H10             6.4120954550       -8.9876606920       14.2562725671  SYS       6               0.0000000000
       191         6  MOL       C11             5.2341560707      -11.0954009360       18.6358686466  SYS       6               0.0000000000
       192         6  MOL       C12             7.5428383035      -11.7232297172       18.0174730256  SYS       6               0.0000000000
       193         6  MOL       H13             9.4137747230      -12.1548970152       17.3371404008  SYS       6               0.0000000000
       194         6  MOL       H14            10.4056608156      -11.3598852865       15.2512192058  SYS       6               0.0000000000
       195         6  MOL       C15             9.5174499505      -10.1341422296       13.8744649919  SYS       6               0.0000000000
       196         6  MOL       C16             8.2229461631       -8.6487101598       12.3771946689  SYS       6               0.0000000000
       197         6  MOL       C17             5.3354103857      -11.8544904886       19.7524045349  SYS       6               0.0000000000
       198         6  MOL       H18             4.4278514964      -10.6281909868       18.4521683948  SYS       6               0.0000000000
       199         6  MOL       C19             7.6098862264      -12.4940394715       19.2168340207  SYS       6               0.0000000000
       200         6  MOL       C20            10.6129073492      -10.0677175320       12.9782733879  SYS       6               0.0000000000
       201         6  MOL       C21             9.3034609309       -8.6018853243       11.5075676245  SYS       6               0.0000000000
       202         6  MOL       H22             7.4274116533       -8.1718179704       12.1714356046  SYS       6               0.0000000000
       203         6  MOL       C23             6.5423828231      -12.5622247216       20.0497938815  SYS       6               0.0000000000
       204         6  MOL       H24             4.6021582450      -11.9188346715       20.3525079034  SYS       6               0.0000000000
       205         6  MOL       H25             8.4029930845      -12.9768346157       19.4196323231  SYS       6               0.0000000000
       206         6  MOL       H26            11.4127625071      -10.5395965843       13.1790633350  SYS       6               0.0000000000
       207         6  MOL       C27            10.5218439086       -9.3141592642       11.8216288039  SYS       6               0.0000000000
       208         6  MOL       C28             9.2445953935       -7.8568787820       10.2915865417  SYS       6               0.0000000000
       209         6  MOL       H29             6.5862628024      -13.0861180824       20.8412262508  SYS       6               0.0000000000
       210         6  MOL       C30            11.6256178677       -9.2248470393       10.9167067999  SYS       6               0.0000000000
       211         6  MOL       C31            10.3154818419       -7.8035059917        9.4618947743  SYS       6               0.0000000000
       212         6  MOL       H32             8.4499349019       -7.3845114221       10.0710858001  SYS       6               0.0000000000
       213         6  MOL       C33            11.5274556800       -8.4924330603        9.7822220190  SYS       6               0.0000000000
       214         6  MOL       H34            12.4323176460       -9.6854754858       11.1147343056  SYS       6               0.0000000000
       215         6  MOL       H35            10.2742899570       -7.2958963214        8.6597784834  SYS       6               0.0000000000
       216         6  MOL       H36            12.2654022701       -8.4342376963        9.1872673499  SYS       6               0.0000000000
       217         7  MOL       C1              8.9128220609       11.2893851786      -10.5265515412  SYS       7               0.0000000000
       218         7  MOL       C2              9.9809135386       11.3574168689      -11.4550723107  SYS       7               0.0000000000
       219         7  MOL       C3              7.6759497896       12.0141824532      -10.8059192058  SYS       7               0.0000000000
       220         7  MOL       C4              9.0341055609       10.5493118458       -9.3429792790  SYS       7               0.0000000000
       221         7  MOL       C5              9.8466719316       12.0888336600      -12.6216819138  SYS       7               0.0000000000
       222         7  MOL       H6             10.7903331488       10.8947658398      -11.2719094616  SYS       7               0.0000000000
       223         7  MOL       C7              7.5645909497       12.7551347241      -11.9994894156  SYS       7               0.0000000000
       224         7  MOL       C8              6.6210694063       11.9675006329       -9.8869465433  SYS       7               0.0000000000
       225         7  MOL       C9              7.9818830214       10.5079251860       -8.4207117315  SYS       7               0.0000000000
       226         7  MOL       H10             9.8412752513       10.0834164809       -9.1592152507  SYS       7               0.0000000000
       227         7  MOL       C11            10.9137610214       12.1653337986      -13.5707056577  SYS       7               0.0000000000
       228         7  MOL       C12             8.6145411846       12.7897286444      -12.9063321146  SYS       7               0.0000000000
       229         7  MOL       H13             6.7605266417       13.2259273957      -12.1851583649  SYS       7               0.0000000000
       230         7  MOL       H14             5.8185631561       12.4441461448      -10.0634214055  SYS       7               0.0000000000
       231         7  MOL       C15             6.7454350307       11.2335109180       -8.6999108189  SYS       7               0.0000000000
       232         7  MOL       C16             8.1058663165        9.7928634859       -7.2126820137  SYS       7               0.0000000000
       233         7  MOL       C17            10.7637045927       12.8636548609      -14.7209023963  SYS       7               0.0000000000
       234         7  MOL       H18            11.7314729753       11.7158798155      -13.3932337917  SYS       7               0.0000000000
       235         7  MOL       C19             8.5029800432       13.5095091960      -14.1337603067  SYS       7               0.0000000000
       236         7  MOL       C20             5.6943621151       11.2036593824       -7.7501986690  SYS       7               0.0000000000
       237         7  MOL       C21             7.0702588478        9.7884200136       -6.2888566294  SYS       7               0.0000000000
       238         7  MOL       H22             8.9118792089        9.3259783875       -7.0256001302  SYS       7               0.0000000000
       239         7  MOL       C23             9.5387058826       13.5441887888      -15.0078908378  SYS       7               0.0000000000
       240         7  MOL       H24            11.4749490869       12.9042339242      -15.3489211362  SYS       7               0.0000000000
       241         7  MOL       H25             7.6966667102       13.9711221068      -14.3337831072  SYS       7               0.0000000000
       242         7  MOL       H26             4.8922027417       11.6826344971       -7.9230508641  SYS       7               0.0000000000
       243         7  MOL       C27             5.8474038635       10.5092921486       -6.5634376631  SYS       7               0.0000000000
       244         7  MOL       C28             7.1944717777        9.0955480290       -5.0472409708  SYS       7               0.0000000000
       245         7  MOL       H29             9.4643583263       14.0312317552      -15.8203048278  SYS       7               0.0000000000
       246         7  MOL       C30             4.8150886345       10.5106721465       -5.5737403187  SYS       7               0.0000000000
       247         7  MOL       C31             6.1887530345        9.1270535445       -4.1386310061  SYS       7               0.0000000000
       248         7  MOL       H32             7.9944059731        8.6199516303       -4.8544972417  SYS       7               0.0000000000
       249         7  MOL       C33             4.9842873860        9.8519457443       -4.4030255400  SYS       7               0.0000000000
       250         7  MOL       H34             4.0093524770       10.9859391243       -5.7382654590  SYS       7               0.0000000000
       251         7  MOL       H35             6.2790239859        8.6729813352       -3.3089175062  SYS       7               0.0000000000
       252         7  MOL       H36             4.2983782995        9.8673304043       -3.7463559318  SYS       7               0.0000000000
       253         8  MOL       C1             -9.4422514230        1.9011836092        2.6084078987  SYS       8               0.0000000000
       254         8  MOL       C2            -10.5092833620        1.8367433549        3.5384018938  SYS       8               0.0000000000
       255         8  MOL       C3             -8.2038256597        1.1789245712        2.8874668662  SYS       8               0.0000000000
       256         8  MOL       C4             -9.5619274795        2.6522702710        1.4316292525  SYS       8               0.0000000000
       257         8  MOL       C5            -10.3765444299        1.0999518803        4.7017969240  SYS       8               0.0000000000
       258         8  MOL       H6            -11.3144029089        2.3092995639        3.3616878680  SYS       8               0.0000000000
       259         8  MOL       C7             -8.0963906244        0.4279463115        4.0751159183  SYS       8               0.0000000000
       260         8  MOL       C8             -7.1444113202        1.2390141888        1.9745084532  SYS       8               0.0000000000
       261         8  MOL       C9             -8.5071295916        2.7031872994        0.5127867966  SYS       8               0.0000000000
       262         8  MOL       H10           -10.3680387105        3.1215638147        1.2519104052  SYS       8               0.0000000000
       263         8  MOL       C11           -11.4353042203        1.0433723356        5.6614864178  SYS       8               0.0000000000
       264         8  MOL       C12            -9.1517923429        0.3818165454        4.9750910141  SYS       8               0.0000000000
       265         8  MOL       H13            -7.2932308877       -0.0445981995        4.2602489302  SYS       8               0.0000000000
       266         8  MOL       H14            -6.3397678123        0.7666621133        2.1527862206  SYS       8               0.0000000000
       267         8  MOL       C15            -7.2680251335        1.9827184260        0.7934558920  SYS       8               0.0000000000
       268         8  MOL       C16            -8.6266316403        3.4352462750       -0.6854743723  SYS       8               0.0000000000
       269         8  MOL       C17           -11.2979545205        0.3164224176        6.7954179198  SYS       8               0.0000000000
       270         8  MOL       H18           -12.2420484358        1.5171730383        5.4976735661  SYS       8               0.0000000000
       271         8  MOL       C19            -9.0556918069       -0.3679563533        6.1857582617  SYS       8               0.0000000000
       272         8  MOL       C20            -6.2091212936        2.0329680013       -0.1466484604  SYS       8               0.0000000000
       273         8  MOL       C21            -7.5814374128        3.4633238905       -1.5980184034  SYS       8               0.0000000000
       274         8  MOL       H22            -9.4331893560        3.9018493452       -0.8709045174  SYS       8               0.0000000000
       275         8  MOL       C23           -10.0933356682       -0.4091163622        7.0573292252  SYS       8               0.0000000000
       276         8  MOL       H24           -12.0074951887        0.2791062640        7.4255627234  SYS       8               0.0000000000
       277         8  MOL       H25            -8.2560831837       -0.8446567606        6.3771206473  SYS       8               0.0000000000
       278         8  MOL       H26            -5.4047562414        1.5582426960        0.0276715030  SYS       8               0.0000000000
       279         8  MOL       C27            -6.3558952669        2.7475177024       -1.3221676828  SYS       8               0.0000000000
       280         8  MOL       C28            -7.6953121198        4.1810551921       -2.8264337376  SYS       8               0.0000000000
       281         8  MOL       H29           -10.0300023876       -0.9228450727        7.8540892951  SYS       8               0.0000000000
       282         8  MOL       C30            -5.3090801135        2.7773843438       -2.2960585841  SYS       8               0.0000000000
       283         8  MOL       C31            -6.6789354192        4.1734830367       -3.7236271097  SYS       8               0.0000000000
       284         8  MOL       H32            -8.4964034095        4.6548820589       -3.0187294185  SYS       8               0.0000000000
       285         8  MOL       C33            -5.4695299625        3.4583559504       -3.4552200484  SYS       8               0.0000000000
       286         8  MOL       H34            -4.5011544928        2.3066072927       -2.1293758400  SYS       8               0.0000000000
       287         8  MOL       H35            -6.7625424233        4.6418832532       -4.5460418513  SYS       8               0.0000000000
       288         8  MOL       H36            -4.7735803563        3.4616521346       -4.1014136862  SYS       8               0.0000000000
       289         9  MOL       C1             -8.0166987160       -5.8735625148        0.3189431983  SYS       9               0.0000000000
       290         9  MOL       C2             -6.9339914763       -5.8222831837       -0.5935884446  SYS       9               0.0000000000
       291         9  MOL       C3             -9.2615590794       -5.1862117103       -0.0143763837  SYS       9               0.0000000000
       292         9  MOL       C4             -7.9096898277       -6.5767291770        1.5261578674  SYS       9               0.0000000000
       293         9  MOL       C5             -7.0480841301       -5.1070386093       -1.7723069703  SYS       9               0.0000000000
       294         9  MOL       H6             -6.1260463966       -6.2780801789       -0.3880925816  SYS       9               0.0000000000
       295         9  MOL       C7             -9.3532093884       -4.4616944721       -1.2196547319  SYS       9               0.0000000000
       296         9  MOL       C8            -10.3450197401       -5.2453339358        0.8699765593  SYS       9               0.0000000000
       297         9  MOL       C9             -8.9898542280       -6.6296424304        2.4149253525  SYS       9               0.0000000000
       298         9  MOL       H10            -7.1003689371       -7.0259895593        1.7395012903  SYS       9               0.0000000000
       299         9  MOL       C11            -5.9655290549       -5.0457679276       -2.7047756697  SYS       9               0.0000000000
       300         9  MOL       C12            -8.2696968347       -4.3995252233       -2.0845775295  SYS       9               0.0000000000
       301         9  MOL       H13           -10.1587001428       -4.0049995017       -1.4323809836  SYS       9               0.0000000000
       302         9  MOL       H14           -11.1565165387       -4.8010096716        0.6545710941  SYS       9               0.0000000000
       303         9  MOL       C15           -10.2377220453       -5.9505513273        2.0759687461  SYS       9               0.0000000000
       304         9  MOL       C16            -8.9033181852       -7.3475190396        3.6245474421  SYS       9               0.0000000000
       305         9  MOL       C17            -6.0751950509       -4.3209042325       -3.8430496998  SYS       9               0.0000000000
       306         9  MOL       H18            -5.1598397590       -5.5119655434       -2.5158774785  SYS       9               0.0000000000
       307         9  MOL       C19            -8.3341662458       -3.6413118314       -3.2920815851  SYS       9               0.0000000000
       308         9  MOL       C20           -11.3306193479       -6.0117814771        2.9756491950  SYS       9               0.0000000000
       309         9  MOL       C21            -9.9935866840       -7.4169530594        4.4803800492  SYS       9               0.0000000000
       310         9  MOL       H22            -8.1010725976       -7.8093013576        3.8385502937  SYS       9               0.0000000000
       311         9  MOL       C23            -7.2751902821       -3.6002403431       -4.1376097719  SYS       9               0.0000000000
       312         9  MOL       H24            -5.3502251193       -4.2822457977       -4.4552972414  SYS       9               0.0000000000
       313         9  MOL       H25            -9.1296564511       -3.1658347812       -3.5026847643  SYS       9               0.0000000000
       314         9  MOL       H26           -12.1430884438       -5.5693851821        2.7590061969  SYS       9               0.0000000000
       315         9  MOL       C27           -11.2216900347       -6.7268000307        4.1549931606  SYS       9               0.0000000000
       316         9  MOL       C28            -9.9451797285       -8.2000438628        5.6726616701  SYS       9               0.0000000000
       317         9  MOL       H29            -7.3222817451       -3.0953938192       -4.9411440167  SYS       9               0.0000000000
       318         9  MOL       C30           -12.3271908063       -6.8256277758        5.0568127602  SYS       9               0.0000000000
       319         9  MOL       C31           -11.0354986431       -8.3051049443        6.4715369517  SYS       9               0.0000000000
       320         9  MOL       H32            -9.1497828531       -8.6728184436        5.8896058780  SYS       9               0.0000000000
       321         9  MOL       C33           -12.2423016636       -7.6019494028        6.1628147257  SYS       9               0.0000000000
       322         9  MOL       H34           -13.1361997781       -6.3687915844        4.8594218907  SYS       9               0.0000000000
       323         9  MOL       H35           -11.0046359053       -8.8450245355        7.2527470563  SYS       9               0.0000000000
       324         9  MOL       H36           -12.9878206380       -7.6838877499        6.7454042062  SYS       9               0.0000000000
       325        10  MOL       C1             -8.9945057902       -1.3310007540      -11.7094867947  SYS       10              0.0000000000
       326        10  MOL       C2            -10.0392486961       -1.9819353435      -11.0110058989  SYS       10              0.0000000000
       327        10  MOL       C3             -7.8489637649       -0.8133659319      -10.9758840575  SYS       10              0.0000000000
       328        10  MOL       C4             -9.0634519452       -1.1845166778      -13.1027794360  SYS       10              0.0000000000
       329        10  MOL       C5             -9.9577031134       -2.1325528331       -9.6316000313  SYS       10              0.0000000000
       330        10  MOL       H6            -10.7875308346       -2.3243579574      -11.4865006840  SYS       10              0.0000000000
       331        10  MOL       C7             -7.7965110164       -0.9685656728       -9.5799932352  SYS       10              0.0000000000
       332        10  MOL       C8             -6.8171925446       -0.1695903687      -11.6718798054  SYS       10              0.0000000000
       333        10  MOL       C9             -8.0363711319       -0.5272889769      -13.7931168088  SYS       10              0.0000000000
       334        10  MOL       H10            -9.8123886980       -1.5232715550      -13.5776482084  SYS       10              0.0000000000
       335        10  MOL       C11           -11.0003955551       -2.8133032993       -8.9038916984  SYS       10              0.0000000000
       336        10  MOL       C12            -8.8161209563       -1.6273295288       -8.9062141854  SYS       10              0.0000000000
       337        10  MOL       H13            -7.0492953369       -0.6320617340       -9.0983379996  SYS       10              0.0000000000
       338        10  MOL       H14            -6.0690759651        0.1710444233      -11.1970629895  SYS       10              0.0000000000
       339        10  MOL       C15            -6.8849519993       -0.0157721038      -13.0644400967  SYS       10              0.0000000000
       340        10  MOL       C16            -8.1163089268       -0.3537850440      -15.1855448286  SYS       10              0.0000000000
       341        10  MOL       C17           -10.8945901468       -2.9856500464       -7.5655983024  SYS       10              0.0000000000
       342        10  MOL       H18           -11.7532004332       -3.1531586897       -9.3722867611  SYS       10              0.0000000000
       343        10  MOL       C19            -8.7601199430       -1.8370429219       -7.4852793144  SYS       10              0.0000000000
       344        10  MOL       C20            -5.8526621920        0.6395455583      -13.7771922612  SYS       10              0.0000000000
       345        10  MOL       C21            -7.1013624164        0.3029062858      -15.8683277743  SYS       10              0.0000000000
       346        10  MOL       H22            -8.8709692307       -0.6854630676      -15.6588686667  SYS       10              0.0000000000
       347        10  MOL       C23            -9.7616010815       -2.4979001988       -6.8505833198  SYS       10              0.0000000000
       348        10  MOL       H24           -11.5797745411       -3.4460528819       -7.0956182544  SYS       10              0.0000000000
       349        10  MOL       H25            -8.0118332796       -1.5169038799       -6.9945660086  SYS       10              0.0000000000
       350        10  MOL       H26            -5.0965875493        0.9762741446      -13.3100309692  SYS       10              0.0000000000
       351        10  MOL       C27            -5.9471630908        0.7965774811      -15.1550552599  SYS       10              0.0000000000
       352        10  MOL       C28            -7.1760631925        0.5004207842      -17.2901503902  SYS       10              0.0000000000
       353        10  MOL       H29            -9.7174839610       -2.6458069573       -5.9128117970  SYS       10              0.0000000000
       354        10  MOL       C30            -4.9088573779        1.4589112301      -15.9056706080  SYS       10              0.0000000000
       355        10  MOL       C31            -6.1676158478        1.1293949105      -17.9458647533  SYS       10              0.0000000000
       356        10  MOL       H32            -7.9335485667        0.1834288384      -17.7686412385  SYS       10              0.0000000000
       357        10  MOL       C33            -5.0232308315        1.6119241784      -17.2456083523  SYS       10              0.0000000000
       358        10  MOL       H34            -4.1444332283        1.7913139644      -15.4509454824  SYS       10              0.0000000000
       359        10  MOL       H35            -6.2157690239        1.2544232969      -18.8867618425  SYS       10              0.0000000000
       360        10  MOL       H36            -4.3353676077        2.0528501421      -17.7301268332  SYS       10              0.0000000000
       361        11  MOL       C1             -6.7588691554        4.8534671237        4.1587599174  SYS       11              0.0000000000
       362        11  MOL       C2             -7.8324874469        4.2374689807        4.8450318703  SYS       11              0.0000000000
       363        11  MOL       C3             -5.5927298253        5.3027822799        4.9048298005  SYS       11              0.0000000000
       364        11  MOL       C4             -6.8080959394        5.0195565795        2.7668308396  SYS       11              0.0000000000
       365        11  MOL       C5             -7.7658000910        4.0609575636        6.2221638081  SYS       11              0.0000000000
       366        11  MOL       H6             -8.5943896214        3.9394149251        4.3613547541  SYS       11              0.0000000000
       367        11  MOL       C7             -5.5528456329        5.1212412483        6.2979563357  SYS       11              0.0000000000
       368        11  MOL       C8             -4.5299790174        5.9109463774        4.2235765003  SYS       11              0.0000000000
       369        11  MOL       C9             -5.7389619484        5.6182344806        2.0871645861  SYS       11              0.0000000000
       370        11  MOL       H10            -7.5667025015        4.7176063486        2.2825751017  SYS       11              0.0000000000
       371        11  MOL       C11            -8.8444914991        3.4271451036        6.9397254812  SYS       11              0.0000000000
       372        11  MOL       C12            -6.6084157238        4.5088930236        6.9600393293  SYS       11              0.0000000000
       373        11  MOL       H13            -4.7940890953        5.4175435024        6.7879067714  SYS       11              0.0000000000
       374        11  MOL       H14            -3.7711480262        6.2126077224        4.7076606317  SYS       11              0.0000000000
       375        11  MOL       C15            -4.5775961081        6.0815218761        2.8321340188  SYS       11              0.0000000000
       376        11  MOL       C16            -5.7774173443        5.7697293791        0.6904112311  SYS       11              0.0000000000
       377        11  MOL       C17            -8.7696338525        3.2638594777        8.2812401241  SYS       11              0.0000000000
       378        11  MOL       H18            -9.6089748547        3.1261686580        6.4637116327  SYS       11              0.0000000000
       379        11  MOL       C19            -6.5835499645        4.3065962773        8.3829340721  SYS       11              0.0000000000
       380        11  MOL       C20            -3.5159811418        6.7083864055        2.1370846265  SYS       11              0.0000000000
       381        11  MOL       C21            -4.7234778185        6.3784622036        0.0224229848  SYS       11              0.0000000000
       382        11  MOL       H22            -6.5304890975        5.4554954277        0.2028685153  SYS       11              0.0000000000
       383        11  MOL       C23            -7.6287937795        3.7100702135        9.0107539820  SYS       11              0.0000000000
       384        11  MOL       H24            -9.4839387852        2.8470484175        8.7485373246  SYS       11              0.0000000000
       385        11  MOL       H25            -5.8293181110        4.5969458238        8.8829870066  SYS       11              0.0000000000
       386        11  MOL       H26            -2.7598591413        7.0252315933        2.6178791004  SYS       11              0.0000000000
       387        11  MOL       C27            -3.5784516352        6.8621131600        0.7570261457  SYS       11              0.0000000000
       388        11  MOL       C28            -4.7457594322        6.5353554346       -1.4062336492  SYS       11              0.0000000000
       389        11  MOL       H29            -7.6093831141        3.5847633470        9.9526454693  SYS       11              0.0000000000
       390        11  MOL       C30            -2.5147071364        7.5069970742        0.0271216807  SYS       11              0.0000000000
       391        11  MOL       C31            -3.7080120812        7.1358643394       -2.0426339285  SYS       11              0.0000000000
       392        11  MOL       H32            -5.4896326698        6.2097674450       -1.9000621064  SYS       11              0.0000000000
       393        11  MOL       C33            -2.5856211931        7.6345102448       -1.3184781841  SYS       11              0.0000000000
       394        11  MOL       H34            -1.7605924186        7.8400128426        0.4983140921  SYS       11              0.0000000000
       395        11  MOL       H35            -3.7158575204        7.2279695669       -2.9885161804  SYS       11              0.0000000000
       396        11  MOL       H36            -1.8795752449        8.0576841536       -1.7925590215  SYS       11              0.0000000000
       397        12  MOL       C1             -6.3161246011        7.8505006835      -12.6223628518  SYS       12              0.0000000000
       398        12  MOL       C2             -5.2779245056        8.4815864888      -13.3482763336  SYS       12              0.0000000000
       399        12  MOL       C3             -7.5025857105        7.3790697512      -13.3212535393  SYS       12              0.0000000000
       400        12  MOL       C4             -6.2057076243        7.6807235446      -11.2343933360  SYS       12              0.0000000000
       401        12  MOL       C5             -5.3916188711        8.6365707831      -14.7249205611  SYS       12              0.0000000000
       402        12  MOL       H6             -4.5025406375        8.7921323411      -12.8948275387  SYS       12              0.0000000000
       403        12  MOL       C7             -7.5983407002        7.5608363627      -14.7116280682  SYS       12              0.0000000000
       404        12  MOL       C8             -8.5237668807        6.7474526693      -12.5989947224  SYS       12              0.0000000000
       405        12  MOL       C9             -7.2302489885        7.0505403517      -10.5156492414  SYS       12              0.0000000000
       406        12  MOL       H10            -5.4339953182        7.9967637569      -10.7808074250  SYS       12              0.0000000000
       407        12  MOL       C11            -4.3363404064        9.2596782775      -15.4853892033  SYS       12              0.0000000000
       408        12  MOL       C12            -6.5717844729        8.1746122083      -15.4166202520  SYS       12              0.0000000000
       409        12  MOL       H13            -8.3698702745        7.2505717945      -15.1721016861  SYS       12              0.0000000000
       410        12  MOL       H14            -9.2967647009        6.4340110028      -13.0521946548  SYS       12              0.0000000000
       411        12  MOL       C15            -8.4159510740        6.5726628385      -11.2114429811  SYS       12              0.0000000000
       412        12  MOL       C16            -7.1255121252        6.8898730164       -9.1233254091  SYS       12              0.0000000000
       413        12  MOL       C17            -4.4546711731        9.3942427001      -16.8269620289  SYS       12              0.0000000000
       414        12  MOL       H18            -3.5584520623        9.5714542229      -15.0389630728  SYS       12              0.0000000000
       415        12  MOL       C19            -6.6460251974        8.3587776893      -16.8402575372  SYS       12              0.0000000000
       416        12  MOL       C20            -9.4449966128        5.9447503997      -10.4699105259  SYS       12              0.0000000000
       417        12  MOL       C21            -8.1507765876        6.2849767759       -8.4088425233  SYS       12              0.0000000000
       418        12  MOL       H22            -6.3543566603        7.2095015734       -8.6686664421  SYS       12              0.0000000000
       419        12  MOL       C23            -5.6199334036        8.9406042406      -17.5119340313  SYS       12              0.0000000000
       420        12  MOL       H24            -3.7545309451        9.8023041056      -17.3225618886  SYS       12              0.0000000000
       421        12  MOL       H25            -7.4163995340        8.0612030452      -17.3105704101  SYS       12              0.0000000000
       422        12  MOL       H26           -10.2217289883        5.6274759830      -10.9163390646  SYS       12              0.0000000000
       423        12  MOL       C27            -9.3308793719        5.8092403913       -9.0912480648  SYS       12              0.0000000000
       424        12  MOL       C28            -8.0671238973        6.1366238477       -6.9815495012  SYS       12              0.0000000000
       425        12  MOL       H29            -5.6702572801        9.0526469892      -18.4543522445  SYS       12              0.0000000000
       426        12  MOL       C30           -10.3796307827        5.2040912442       -8.3076007343  SYS       12              0.0000000000
       427        12  MOL       C31            -9.0900906234        5.5696723824       -6.2926076032  SYS       12              0.0000000000
       428        12  MOL       H32            -7.2963424134        6.4504675414       -6.5226164801  SYS       12              0.0000000000
       429        12  MOL       C33           -10.2575154887        5.1009328341       -6.9635867438  SYS       12              0.0000000000
       430        12  MOL       H34           -11.1595309905        4.8800924449       -8.7416413339  SYS       12              0.0000000000
       431        12  MOL       H35            -9.0371724186        5.4816164588       -5.3477880561  SYS       12              0.0000000000
       432        12  MOL       H36           -10.9554319449        4.7065212904       -6.4539968764  SYS       12              0.0000000000
       433        13  MOL       C1             -5.3659223964        8.7155972899       16.6420145116  SYS       13              0.0000000000
       434        13  MOL       C2             -4.3099827203        9.3381099879       15.9345200008  SYS       13              0.0000000000
       435        13  MOL       C3             -6.5528604123        8.2719991765       15.9259250081  SYS       13              0.0000000000
       436        13  MOL       C4             -5.2711387611        8.5317775600       18.0293507760  SYS       13              0.0000000000
       437        13  MOL       C5             -4.4150108365        9.5286782596       14.5616585051  SYS       13              0.0000000000
       438        13  MOL       H6             -3.5347876565        9.6304374314       16.4002366258  SYS       13              0.0000000000
       439        13  MOL       C7             -6.6317630261        8.4741436602       14.5373064775  SYS       13              0.0000000000
       440        13  MOL       C8             -7.5933283492        7.6542891845       16.6325152333  SYS       13              0.0000000000
       441        13  MOL       C9             -6.3087836672        7.9015785784       18.7290301516  SYS       13              0.0000000000
       442        13  MOL       H10            -4.4977044012        8.8277831881       18.4933997354  SYS       13              0.0000000000
       443        13  MOL       C11            -3.3534357196       10.1698080057       13.8253168295  SYS       13              0.0000000000
       444        13  MOL       C12            -5.5969206458        9.0975815534       13.8532166466  SYS       13              0.0000000000
       445        13  MOL       H13            -7.4045400316        8.1848643147       14.0654048999  SYS       13              0.0000000000
       446        13  MOL       H14            -8.3672793894        7.3600965847       16.1681748535  SYS       13              0.0000000000
       447        13  MOL       C15            -7.4971697105        7.4544667537       18.0175423376  SYS       13              0.0000000000
       448        13  MOL       C16            -6.2029413356        7.6961705877       20.1153758568  SYS       13              0.0000000000
       449        13  MOL       C17            -3.4701956254       10.3603306562       12.4904027334  SYS       13              0.0000000000
       450        13  MOL       H18            -2.5744845899       10.4608720260       14.2837136873  SYS       13              0.0000000000
       451        13  MOL       C19            -5.6666924845        9.3335993076       12.4370248379  SYS       13              0.0000000000
       452        13  MOL       C20            -8.5336022062        6.8185581788       18.7417709611  SYS       13              0.0000000000
       453        13  MOL       C21            -7.2215320845        7.0552061059       20.8076112879  SYS       13              0.0000000000
       454        13  MOL       H22            -5.4264722097        7.9915703820       20.5773202253  SYS       13              0.0000000000
       455        13  MOL       C23            -4.6375520110        9.9371908058       11.7896586307  SYS       13              0.0000000000
       456        13  MOL       H24            -2.7695931843       10.7867615387       12.0111923490  SYS       13              0.0000000000
       457        13  MOL       H25            -6.4388650114        9.0600625573       11.9552066976  SYS       13              0.0000000000
       458        13  MOL       H26            -9.3129625000        6.5216635756       18.2860014955  SYS       13              0.0000000000
       459        13  MOL       C27            -8.4088996152        6.6187738205       20.1116729145  SYS       13              0.0000000000
       460        13  MOL       C28            -7.1126307182        6.8118431344       22.2200866649  SYS       13              0.0000000000
       461        13  MOL       H29            -4.6854647838       10.0855398408       10.8521432503  SYS       13              0.0000000000
       462        13  MOL       C30            -9.4464925091        5.9659936873       20.8715855633  SYS       13              0.0000000000
       463        13  MOL       C31            -8.1166048456        6.1834764575       22.8832058817  SYS       13              0.0000000000
       464        13  MOL       H32            -6.3327801463        7.0915012191       22.6857538410  SYS       13              0.0000000000
       465        13  MOL       C33            -9.2938769249        5.7585685666       22.2003484130  SYS       13              0.0000000000
       466        13  MOL       H34           -10.2328154862        5.6697388077       20.4293864903  SYS       13              0.0000000000
       467        13  MOL       H35            -8.0441191364        6.0237667104       23.8172705352  SYS       13              0.0000000000
       468        13  MOL       H36            -9.9782116403        5.3186523825       22.6907456260  SYS       13              0.0000000000
       469        14  MOL       C1             -7.9917056365       -0.3456516875       17.3757720047  SYS       14              0.0000000000
       470        14  MOL       C2             -9.0365566998       -0.9718054380       18.0963945488  SYS       14              0.0000000000
       471        14  MOL       C3             -6.8000675262        0.0932816104       18.0869129579  SYS       14              0.0000000000
       472        14  MOL       C4             -8.0884382457       -0.1558441819       15.9893768677  SYS       14              0.0000000000
       473        14  MOL       C5             -8.9190090814       -1.1660838334       19.4677203059  SYS       14              0.0000000000
       474        14  MOL       H6             -9.8155650497       -1.2662648197       17.6384487636  SYS       14              0.0000000000
       475        14  MOL       C7             -6.7035834256       -0.1115787396       19.4740223641  SYS       14              0.0000000000
       476        14  MOL       C8             -5.7623069506        0.7137380846       17.3787493676  SYS       14              0.0000000000
       477        14  MOL       C9             -7.0525634014        0.4670121585       15.2805593849  SYS       14              0.0000000000
       478        14  MOL       H10            -8.8624781094       -0.4515040523       15.5261177520  SYS       14              0.0000000000
       479        14  MOL       C11            -9.9656797853       -1.8133794140       20.2198353321  SYS       14              0.0000000000
       480        14  MOL       C12            -7.7346488495       -0.7295450065       20.1686980008  SYS       14              0.0000000000
       481        14  MOL       H13            -5.9253572830        0.1768906020       19.9373877157  SYS       14              0.0000000000
       482        14  MOL       H14            -4.9855730023        1.0059606171       17.8396743639  SYS       14              0.0000000000
       483        14  MOL       C15            -5.8642686169        0.9114998825       15.9938415519  SYS       14              0.0000000000
       484        14  MOL       C16            -7.1410290031        0.6676649948       13.8923008592  SYS       14              0.0000000000
       485        14  MOL       C17            -9.8378814030       -1.9954261180       21.5549210865  SYS       14              0.0000000000
       486        14  MOL       H18           -10.7459088877       -2.1129528883       19.7691590766  SYS       14              0.0000000000
       487        14  MOL       C19            -7.6519007510       -0.9500427328       21.5866913838  SYS       14              0.0000000000
       488        14  MOL       C20            -4.8196863132        1.5428958268       15.2774156269  SYS       14              0.0000000000
       489        14  MOL       C21            -6.1138087116        1.2966603638       13.2018403081  SYS       14              0.0000000000
       490        14  MOL       H22            -7.9128678799        0.3704266060       13.4238224386  SYS       14              0.0000000000
       491        14  MOL       C23            -8.6711029705       -1.5565715548       22.2469075921  SYS       14              0.0000000000
       492        14  MOL       H24           -10.5321269278       -2.4228699564       22.0424091241  SYS       14              0.0000000000
       493        14  MOL       H25            -6.8771881568       -0.6681995707       22.0595616770  SYS       14              0.0000000000
       494        14  MOL       H26            -4.0412943300        1.8362391939       15.7371223470  SYS       14              0.0000000000
       495        14  MOL       C27            -4.9325001285        1.7368917436       13.9056523398  SYS       14              0.0000000000
       496        14  MOL       C28            -6.1908805792        1.5174732416       11.7835761100  SYS       14              0.0000000000
       497        14  MOL       H29            -8.6143531571       -1.6975207604       23.1850711912  SYS       14              0.0000000000
       498        14  MOL       C30            -3.8790049079        2.3746366785       13.1549077969  SYS       14              0.0000000000
       499        14  MOL       C31            -5.1646443806        2.1134077821       11.1246094079  SYS       14              0.0000000000
       500        14  MOL       H32            -6.9637494276        1.2350329881       11.3080524787  SYS       14              0.0000000000
       501        14  MOL       C33            -3.9969977613        2.5480729963       11.8177746923  SYS       14              0.0000000000
       502        14  MOL       H34            -3.0980322236        2.6705523776       13.6067112537  SYS       14              0.0000000000
       503        14  MOL       H35            -5.2164943278        2.2490587331       10.1853817671  SYS       14              0.0000000000
       504        14  MOL       H36            -3.2982193419        2.9681714330       11.3303778285  SYS       14              0.0000000000
       505        15  MOL       C1             -5.6718232959       -6.1932132311       13.7296347222  SYS       15              0.0000000000
       506        15  MOL       C2             -4.6354324796       -5.5252993562       13.0347503625  SYS       15              0.0000000000
       507        15  MOL       C3             -6.8345274347       -6.6637620021       12.9913337964  SYS       15              0.0000000000
       508        15  MOL       C4             -5.5920598908       -6.4070427910       15.1136109719  SYS       15              0.0000000000
       509        15  MOL       C5             -4.7256216107       -5.3386363664       11.6602982147  SYS       15              0.0000000000
       510        15  MOL       H6             -3.8726879896       -5.2143173595       13.5088661045  SYS       15              0.0000000000
       511        15  MOL       C7             -6.9125126533       -6.4543242733       11.6037446709  SYS       15              0.0000000000
       512        15  MOL       C8             -7.8679092492       -7.3263749042       13.6669631885  SYS       15              0.0000000000
       513        15  MOL       C9             -6.6246076843       -7.0684729412       15.7916700747  SYS       15              0.0000000000
       514        15  MOL       H10            -4.8331296693       -6.0991196715       15.5935794596  SYS       15              0.0000000000
       515        15  MOL       C11            -3.6702672743       -4.6860505788       10.9250790923  SYS       15              0.0000000000
       516        15  MOL       C12            -5.8840905273       -5.8041003939       10.9350823552  SYS       15              0.0000000000
       517        15  MOL       H13            -7.6692547460       -6.7685880386       11.1219380400  SYS       15              0.0000000000
       518        15  MOL       H14            -8.6253640875       -7.6368158551       13.1862865087  SYS       15              0.0000000000
       519        15  MOL       C15            -7.7906114284       -7.5296616609       15.0526670201  SYS       15              0.0000000000
       520        15  MOL       C16            -6.5574514816       -7.2865393835       17.1784961373  SYS       15              0.0000000000
       521        15  MOL       C17            -3.7679431076       -4.5272834838        9.5844897290  SYS       15              0.0000000000
       522        15  MOL       H18            -2.9031012513       -4.3727090134       11.3886350891  SYS       15              0.0000000000
       523        15  MOL       C19            -5.9414810793       -5.5968953659        9.5138349702  SYS       15              0.0000000000
       524        15  MOL       C20            -8.8435153597       -8.1801522216       15.7392050558  SYS       15              0.0000000000
       525        15  MOL       C21            -7.5947977623       -7.9283733043       17.8414549486  SYS       15              0.0000000000
       526        15  MOL       H22            -5.7982993760       -6.9857345429       17.6650785763  SYS       15              0.0000000000
       527        15  MOL       C23            -4.9132312181       -4.9873021165        8.8706910439  SYS       15              0.0000000000
       528        15  MOL       H24            -3.0668850523       -4.1003295405        9.1064127435  SYS       15              0.0000000000
       529        15  MOL       H25            -6.6978012136       -5.9006192105        9.0250066098  SYS       15              0.0000000000
       530        15  MOL       H26            -9.6067827467       -8.4822500318       15.2602118535  SYS       15              0.0000000000
       531        15  MOL       C27            -8.7587792413       -8.3745249791       17.1129353456  SYS       15              0.0000000000
       532        15  MOL       C28            -7.5449285980       -8.1579670310       19.2595422243  SYS       15              0.0000000000
       533        15  MOL       H29            -4.9464513779       -4.8662651342        7.9286270181  SYS       15              0.0000000000
       534        15  MOL       C30            -9.8236426255       -9.0257549140       17.8355373758  SYS       15              0.0000000000
       535        15  MOL       C31            -8.5730248028       -8.7795178865       19.8913875799  SYS       15              0.0000000000
       536        15  MOL       H32            -6.7863388262       -7.8678229145       19.7530798901  SYS       15              0.0000000000
       537        15  MOL       C33            -9.7238408665       -9.2161899931       19.1718388005  SYS       15              0.0000000000
       538        15  MOL       H34           -10.5931601678       -9.3250992837       17.3666594614  SYS       15              0.0000000000
       539        15  MOL       H35            -8.5345245112       -8.9266688470       20.8295253526  SYS       15              0.0000000000
       540        15  MOL       H36           -10.4275568823       -9.6487396992       19.6408955127  SYS       15              0.0000000000
       541        16  MOL       C1             -5.1553440991       -8.9704798364        0.2663350774  SYS       16              0.0000000000
       542        16  MOL       C2             -4.1149653648       -8.3081851699       -0.4279681548  SYS       16              0.0000000000
       543        16  MOL       C3             -6.2748690249       -9.5181928394       -0.4853694445  SYS       16              0.0000000000
       544        16  MOL       C4             -5.1235745766       -9.1055156396        1.6621257465  SYS       16              0.0000000000
       545        16  MOL       C5             -4.1690421635       -8.1801004541       -1.8109959474  SYS       16              0.0000000000
       546        16  MOL       H6             -3.3840448113       -7.9411633452        0.0561029179  SYS       16              0.0000000000
       547        16  MOL       C7             -6.2995487923       -9.3987080731       -1.8855350593  SYS       16              0.0000000000
       548        16  MOL       C8             -7.3181841166      -10.1650651321        0.1902478847  SYS       16              0.0000000000
       549        16  MOL       C9             -6.1625127800       -9.7572349997        2.3398264342  SYS       16              0.0000000000
       550        16  MOL       H10            -4.3891522850       -8.7545598958        2.1506085417  SYS       16              0.0000000000
       551        16  MOL       C11            -3.1391164544       -7.4809879761       -2.5394758167  SYS       16              0.0000000000
       552        16  MOL       C12            -5.2799161238       -8.7311433029       -2.5505605882  SYS       16              0.0000000000
       553        16  MOL       H13            -7.0283144797       -9.7621509467       -2.3758082374  SYS       16              0.0000000000
       554        16  MOL       H14            -8.0471003141      -10.5253671367       -0.2996757106  SYS       16              0.0000000000
       555        16  MOL       C15            -7.2881692584      -10.2906021461        1.5869637233  SYS       16              0.0000000000
       556        16  MOL       C16            -6.1317422746       -9.9160532523        3.7359565842  SYS       16              0.0000000000
       557        16  MOL       C17            -3.2310593750       -7.3272810824       -3.8810599886  SYS       16              0.0000000000
       558        16  MOL       H18            -2.4031810449       -7.1114089483       -2.0668012765  SYS       16              0.0000000000
       559        16  MOL       C19            -5.3169241571       -8.5581518238       -3.9770514161  SYS       16              0.0000000000
       560        16  MOL       C20            -8.3340649573      -10.9553123390        2.2705876546  SYS       16              0.0000000000
       561        16  MOL       C21            -7.1608652956      -10.5729401392        4.3969844952  SYS       16              0.0000000000
       562        16  MOL       H22            -5.3929906172       -9.5763635710        4.2283130108  SYS       16              0.0000000000
       563        16  MOL       C23            -4.3325698039       -7.8678560124       -4.6071895100  SYS       16              0.0000000000
       564        16  MOL       H24            -2.5569805831       -6.8500471397       -4.3503096203  SYS       16              0.0000000000
       565        16  MOL       H25            -6.0457555906       -8.9136578622       -4.4726739373  SYS       16              0.0000000000
       566        16  MOL       H26            -9.0673133006      -11.3116847273        1.7820999200  SYS       16              0.0000000000
       567        16  MOL       C27            -8.2810503317      -11.0975661755        3.6522711145  SYS       16              0.0000000000
       568        16  MOL       C28            -7.1411217505      -10.7532917075        5.8229070875  SYS       16              0.0000000000
       569        16  MOL       H29            -4.3669155288       -7.7374621918       -5.5479636494  SYS       16              0.0000000000
       570        16  MOL       C30            -9.3283439857      -11.7852022904        4.3667784453  SYS       16              0.0000000000
       571        16  MOL       C31            -8.1603733747      -11.3957308389        6.4481541707  SYS       16              0.0000000000
       572        16  MOL       H32            -6.4093302288      -10.4164416142        6.3271239664  SYS       16              0.0000000000
       573        16  MOL       C33            -9.2627616209      -11.9205674927        5.7118816472  SYS       16              0.0000000000
       574        16  MOL       H34           -10.0649813826      -12.1428520066        3.8860884993  SYS       16              0.0000000000
       575        16  MOL       H35            -8.1472553353      -11.5041538487        7.3922466060  SYS       16              0.0000000000
       576        16  MOL       H36            -9.9577909384      -12.3728637751        6.1752303272  SYS       16              0.0000000000
       577        17  MOL       C1             -7.4451994537       -7.9833516268      -13.7093359260  SYS       17              0.0000000000
       578        17  MOL       C2             -6.4065186749       -7.3287198964      -14.4133804397  SYS       17              0.0000000000
       579        17  MOL       C3             -8.6201054875       -8.4419172643      -14.4357646451  SYS       17              0.0000000000
       580        17  MOL       C4             -7.3660699407       -8.1637696886      -12.3205726689  SYS       17              0.0000000000
       581        17  MOL       C5             -6.5149731212       -7.1327336534      -15.7852123842  SYS       17              0.0000000000
       582        17  MOL       H6             -5.6461398764       -7.0061108499      -13.9432504774  SYS       17              0.0000000000
       583        17  MOL       C7             -8.7019389691       -8.2478203413      -15.8253613863  SYS       17              0.0000000000
       584        17  MOL       C8             -9.6715901404       -9.0540573299      -13.7407297735  SYS       17              0.0000000000
       585        17  MOL       C9             -8.4165510533       -8.7757368529      -11.6238700369  SYS       17              0.0000000000
       586        17  MOL       H10            -6.6040299336       -7.8528043677      -11.8475429930  SYS       17              0.0000000000
       587        17  MOL       C11            -5.4857908951       -6.4350905047      -16.5161474872  SYS       17              0.0000000000
       588        17  MOL       C12            -7.6776400340       -7.5999239797      -16.5025574075  SYS       17              0.0000000000
       589        17  MOL       H13            -9.4690373431       -8.5489565141      -16.2991071288  SYS       17              0.0000000000
       590        17  MOL       H14           -10.4420494865       -9.3475752670      -14.2112625595  SYS       17              0.0000000000
       591        17  MOL       C15            -9.5983361544       -9.2175103066      -12.3495459092  SYS       17              0.0000000000
       592        17  MOL       C16            -8.3522975305       -8.9525429661      -10.2310453750  SYS       17              0.0000000000
       593        17  MOL       C17            -5.6190275612       -6.2292936662      -17.8472459244  SYS       17              0.0000000000
       594        17  MOL       H18            -4.7222838169       -6.1094510709      -16.0550328455  SYS       17              0.0000000000
       595        17  MOL       C19            -7.7584938470       -7.3646313076      -17.9182804549  SYS       17              0.0000000000
       596        17  MOL       C20           -10.6717060164       -9.8092286088      -11.6418554953  SYS       17              0.0000000000
       597        17  MOL       C21            -9.4063711814       -9.5454008332       -9.5491357315  SYS       17              0.0000000000
       598        17  MOL       H22            -7.5826895168       -8.6613368758       -9.7551667565  SYS       17              0.0000000000
       599        17  MOL       C23            -6.7612514270       -6.7019261401      -18.5577061603  SYS       17              0.0000000000
       600        17  MOL       H24            -4.9412903661       -5.7547596129      -18.3139571811  SYS       17              0.0000000000
       601        17  MOL       H25            -8.5193310045       -7.6666236004      -18.4011354643  SYS       17              0.0000000000
       602        17  MOL       H26           -11.4451457326      -10.1013063157      -12.1106372116  SYS       17              0.0000000000
       603        17  MOL       C27           -10.5857148192       -9.9726168745      -10.2641742270  SYS       17              0.0000000000
       604        17  MOL       C28            -9.3495860382       -9.7601430925       -8.1289832947  SYS       17              0.0000000000
       605        17  MOL       H29            -6.8198552737       -6.5431150310      -19.4928974664  SYS       17              0.0000000000
       606        17  MOL       C30           -11.6596806971      -10.5909638308       -9.5263175445  SYS       17              0.0000000000
       607        17  MOL       C31           -10.3811891538      -10.3655893962       -7.4872936431  SYS       17              0.0000000000
       608        17  MOL       H32            -8.5770476217       -9.4893701376       -7.6461915288  SYS       17              0.0000000000
       609        17  MOL       C33           -11.5512310945      -10.7776460668       -8.1901604306  SYS       17              0.0000000000
       610        17  MOL       H34           -12.4377074501      -10.8805579262       -9.9872084636  SYS       17              0.0000000000
       611        17  MOL       H35           -10.3326436800      -10.5254351336       -6.5517024783  SYS       17              0.0000000000
       612        17  MOL       H36           -12.2555304692      -11.1995059992       -7.7123254604  SYS       17              0.0000000000
       613        18  MOL       C1             -6.6697823873       -2.4994059943        2.1474117596  SYS       18              0.0000000000
       614        18  MOL       C2             -7.7313082124       -3.1306232492        2.8386474939  SYS       18              0.0000000000
       615        18  MOL       C3             -5.5120803010       -2.0325775878        2.8958651214  SYS       18              0.0000000000
       616        18  MOL       C4             -6.7245409828       -2.3246394633        0.7567523127  SYS       18              0.0000000000
       617        18  MOL       C5             -7.6711517521       -3.2792252587        4.2193699501  SYS       18              0.0000000000
       618        18  MOL       H6             -8.4862963476       -3.4484546791        2.3567234402  SYS       18              0.0000000000
       619        18  MOL       C7             -5.4689375902       -2.1961145540        4.2911227338  SYS       18              0.0000000000
       620        18  MOL       C8             -4.4510067870       -1.4189219350        2.2169257679  SYS       18              0.0000000000
       621        18  MOL       C9             -5.6703529528       -1.6987867933        0.0782208334  SYS       18              0.0000000000
       622        18  MOL       H10            -7.4811333239       -2.6319310230        0.2727054097  SYS       18              0.0000000000
       623        18  MOL       C11            -8.7432880818       -3.9165130429        4.9436462188  SYS       18              0.0000000000
       624        18  MOL       C12            -6.5260216955       -2.8011799306        4.9574721461  SYS       18              0.0000000000
       625        18  MOL       H13            -4.7154480476       -1.8847580565        4.7798645667  SYS       18              0.0000000000
       626        18  MOL       H14            -3.6929968132       -1.1149997970        2.7008820674  SYS       18              0.0000000000
       627        18  MOL       C15            -4.5068476934       -1.2456946772        0.8261167669  SYS       18              0.0000000000
       628        18  MOL       C16            -5.7175602957       -1.5046452594       -1.3129764882  SYS       18              0.0000000000
       629        18  MOL       C17            -8.6777161607       -4.0440566647        6.2895140975  SYS       18              0.0000000000
       630        18  MOL       H18            -9.4970515939       -4.2453718385        4.4689850070  SYS       18              0.0000000000
       631        18  MOL       C19            -6.5099543294       -2.9646539548        6.3854741807  SYS       18              0.0000000000
       632        18  MOL       C20            -3.4358148071       -0.6244623612        0.1405235219  SYS       18              0.0000000000
       633        18  MOL       C21            -4.6713636934       -0.8732068363       -1.9719989926  SYS       18              0.0000000000
       634        18  MOL       H22            -6.4755236371       -1.8032398201       -1.8027629750  SYS       18              0.0000000000
       635        18  MOL       C23            -7.5540343078       -3.5567686767        7.0193771475  SYS       18              0.0000000000
       636        18  MOL       H24            -9.3894678361       -4.4630022517        6.7587942038  SYS       18              0.0000000000
       637        18  MOL       H25            -5.7640033559       -2.6504178979        6.8835046323  SYS       18              0.0000000000
       638        18  MOL       H26            -2.6730845597       -0.3283178908        0.6240684540  SYS       18              0.0000000000
       639        18  MOL       C27            -3.5102214379       -0.4345837626       -1.2344330810  SYS       18              0.0000000000
       640        18  MOL       C28            -4.7125166405       -0.6348865930       -3.3889258190  SYS       18              0.0000000000
       641        18  MOL       H29            -7.5425388058       -3.6553618981        7.9645678100  SYS       18              0.0000000000
       642        18  MOL       C30            -2.4379158883        0.2138954242       -1.9484524798  SYS       18              0.0000000000
       643        18  MOL       C31            -3.6815716338       -0.0064884817       -4.0092515650  SYS       18              0.0000000000
       644        18  MOL       H32            -5.4722261656       -0.9144683041       -3.8868183692  SYS       18              0.0000000000
       645        18  MOL       C33            -2.5307632685        0.4190833827       -3.2830702800  SYS       18              0.0000000000
       646        18  MOL       H34            -1.6689825150        0.5036804545       -1.4726616527  SYS       18              0.0000000000
       647        18  MOL       H35            -3.7165125173        0.1584063583       -4.9445734223  SYS       18              0.0000000000
       648        18  MOL       H36            -1.8255929020        0.8578724724       -3.7440784790  SYS       18              0.0000000000
       649        19  MOL       C1              5.5186317742        5.2364631333        4.8020205229  SYS       19              0.0000000000
       650        19  MOL       C2              4.4775138066        4.5735858644        5.4946576707  SYS       19              0.0000000000
       651        19  MOL       C3              6.6609070049        5.7462941545        5.5461071501  SYS       19              0.0000000000
       652        19  MOL       C4              5.4640588054        5.3964789286        3.4095793934  SYS       19              0.0000000000
       653        19  MOL       C5              4.5494346051        4.4134093375        6.8735219673  SYS       19              0.0000000000
       654        19  MOL       H6              3.7334059952        4.2299246846        5.0135389354  SYS       19              0.0000000000
       655        19  MOL       C7              6.7033783221        5.5899401423        6.9422085288  SYS       19              0.0000000000
       656        19  MOL       C8              7.7050499988        6.3825362058        4.8617312447  SYS       19              0.0000000000
       657        19  MOL       C9              6.5039116043        6.0404839542        2.7259328323  SYS       19              0.0000000000
       658        19  MOL       H10             4.7172057848        5.0635306712        2.9273787075  SYS       19              0.0000000000
       659        19  MOL       C11             3.5130665127        3.7192082709        7.5975483480  SYS       19              0.0000000000
       660        19  MOL       C12             5.6761304155        4.9364422867        7.6094826455  SYS       19              0.0000000000
       661        19  MOL       H13             7.4446947671        5.9313121564        7.4295205595  SYS       19              0.0000000000
       662        19  MOL       H14             8.4532714632        6.7127118696        5.3437168860  SYS       19              0.0000000000
       663        19  MOL       C15             7.6557807697        6.5315173903        3.4678687272  SYS       19              0.0000000000
       664        19  MOL       C16             6.4498144097        6.2177888031        1.3327401171  SYS       19              0.0000000000
       665        19  MOL       C17             3.5944619496        3.5749554619        8.9408626488  SYS       19              0.0000000000
       666        19  MOL       H18             2.7711570897        3.3643927336        7.1229041143  SYS       19              0.0000000000
       667        19  MOL       C19             5.7043786746        4.7641178328        9.0362545431  SYS       19              0.0000000000
       668        19  MOL       C20             8.7167236212        7.1554200929        2.7691378657  SYS       19              0.0000000000
       669        19  MOL       C21             7.4876152250        6.8507926562        0.6620478900  SYS       19              0.0000000000
       670        19  MOL       H22             5.6964118674        5.8998710382        0.8481053620  SYS       19              0.0000000000
       671        19  MOL       C23             4.6959958431        4.1122897407        9.6693580269  SYS       19              0.0000000000
       672        19  MOL       H24             2.9078954005        3.1171252689        9.4113385340  SYS       19              0.0000000000
       673        19  MOL       H25             6.4358075172        5.1108428545        9.5342656806  SYS       19              0.0000000000
       674        19  MOL       H26             9.4746087000        7.4723738948        3.2470763278  SYS       19              0.0000000000
       675        19  MOL       C27             8.6492978071        7.3055464256        1.3889162412  SYS       19              0.0000000000
       676        19  MOL       C28             7.4403828587        7.0606553435       -0.7591834393  SYS       19              0.0000000000
       677        19  MOL       H29             4.7152484403        4.0088243889       10.6139015236  SYS       19              0.0000000000
       678        19  MOL       C30             9.7289785797        7.9180171212        0.6545068005  SYS       19              0.0000000000
       679        19  MOL       C31             8.4809314855        7.6512193279       -1.4002985319  SYS       19              0.0000000000
       680        19  MOL       H32             6.6800716721        6.7686604953       -1.2489664379  SYS       19              0.0000000000
       681        19  MOL       C33             9.6408063869        8.0740585569       -0.6870609927  SYS       19              0.0000000000
       682        19  MOL       H34            10.4991768612        8.2201377382        1.1204773341  SYS       19              0.0000000000
       683        19  MOL       H35             8.4491523722        7.7814512561       -2.3411852899  SYS       19              0.0000000000
       684        19  MOL       H36            10.3548632822        8.4801808011       -1.1640485729  SYS       19              0.0000000000
       685        20  MOL       C1              5.3444384984       -9.7177953875        1.7278237887  SYS       20              0.0000000000
       686        20  MOL       C2              4.3002543871      -10.3841917213        2.4124219255  SYS       20              0.0000000000
       687        20  MOL       C3              6.4640119143       -9.1790601600        2.4859168159  SYS       20              0.0000000000
       688        20  MOL       C4              5.3118642116       -9.5788796938        0.3324324862  SYS       20              0.0000000000
       689        20  MOL       C5              4.3496142791      -10.5188170639        3.7950048257  SYS       20              0.0000000000
       690        20  MOL       H6              3.5652758192      -10.7377833146        1.9245139568  SYS       20              0.0000000000
       691        20  MOL       C7              6.5008056383       -9.3389258029        3.8817816503  SYS       20              0.0000000000
       692        20  MOL       C8              7.4930662849       -8.5026894908        1.8173521382  SYS       20              0.0000000000
       693        20  MOL       C9              6.3509170457       -8.9217622324       -0.3398582141  SYS       20              0.0000000000
       694        20  MOL       H10             4.5837912099       -9.9380489504       -0.1595722160  SYS       20              0.0000000000
       695        20  MOL       C11             3.2934616817      -11.1879701067        4.5140069392  SYS       20              0.0000000000
       696        20  MOL       C12             5.4692430028       -9.9942254445        4.5405785566  SYS       20              0.0000000000
       697        20  MOL       H13             7.2325408218       -8.9871668736        4.3761370036  SYS       20              0.0000000000
       698        20  MOL       H14             8.2201303694       -8.1420747774        2.3097913039  SYS       20              0.0000000000
       699        20  MOL       C15             7.4615764775       -8.3692223234        0.4214042616  SYS       20              0.0000000000
       700        20  MOL       C16             6.3353279676       -8.7889516120       -1.7389535561  SYS       20              0.0000000000
       701        20  MOL       C17             3.3519437906      -11.3054178819        5.8611198753  SYS       20              0.0000000000
       702        20  MOL       H18             2.5552180029      -11.5450935890        4.0353944710  SYS       20              0.0000000000
       703        20  MOL       C19             5.4825844267      -10.1556525685        5.9688414940  SYS       20              0.0000000000
       704        20  MOL       C20             8.5109324248       -7.7058259435       -0.2581812525  SYS       20              0.0000000000
       705        20  MOL       C21             7.3678576315       -8.1312767718       -2.3938571918  SYS       20              0.0000000000
       706        20  MOL       H22             5.6083271945       -9.1464422568       -2.2361740868  SYS       20              0.0000000000
       707        20  MOL       C23             4.4543213077      -10.7803848238        6.5972684061  SYS       20              0.0000000000
       708        20  MOL       H24             2.6512690617      -11.7469422843        6.3263518571  SYS       20              0.0000000000
       709        20  MOL       H25             6.2138717756       -9.8158750037        6.4718241030  SYS       20              0.0000000000
       710        20  MOL       H26             9.2383982408       -7.3429382621        0.2341404880  SYS       20              0.0000000000
       711        20  MOL       C27             8.4764064491       -7.5909362850       -1.6429932298  SYS       20              0.0000000000
       712        20  MOL       C28             7.3570369416       -7.9552765934       -3.8204189972  SYS       20              0.0000000000
       713        20  MOL       H29             4.4631303166      -10.8790328367        7.5424822069  SYS       20              0.0000000000
       714        20  MOL       C30             9.5363732047       -6.9180520879       -2.3528421459  SYS       20              0.0000000000
       715        20  MOL       C31             8.3704789161       -7.2949230090       -4.4363770576  SYS       20              0.0000000000
       716        20  MOL       H32             6.6296212984       -8.2966390433       -4.3279223440  SYS       20              0.0000000000
       717        20  MOL       C33             9.4764053682       -6.7805982049       -3.6979955556  SYS       20              0.0000000000
       718        20  MOL       H34            10.2708338036       -6.5612798950       -1.8681855264  SYS       20              0.0000000000
       719        20  MOL       H35             8.3544451429       -7.1662386927       -5.3778766143  SYS       20              0.0000000000
       720        20  MOL       H36            10.1708780544       -6.3239786254       -4.1579258965  SYS       20              0.0000000000
       721        21  MOL       C1              5.8397793479       -1.8480335525        2.4977354940  SYS       21              0.0000000000
       722        21  MOL       C2              4.7702791048       -2.4655052213        3.1890943608  SYS       21              0.0000000000
       723        21  MOL       C3              6.9886169077       -1.3683510131        3.2516998196  SYS       21              0.0000000000
       724        21  MOL       C4              5.8072342465       -1.6941074273        1.1039194635  SYS       21              0.0000000000
       725        21  MOL       C5              4.8185852721       -2.6023950234        4.5714921203  SYS       21              0.0000000000
       726        21  MOL       H6              4.0185717075       -2.7876727924        2.7049262868  SYS       21              0.0000000000
       727        21  MOL       C7              7.0240334711       -1.5279021950        4.6476362567  SYS       21              0.0000000000
       728        21  MOL       C8              8.0425697757       -0.7327180715        2.5819513333  SYS       21              0.0000000000
       729        21  MOL       C9              6.8599141411       -1.0591344897        0.4315480297  SYS       21              0.0000000000
       730        21  MOL       H10             5.0615200939       -2.0166271589        0.6129480761  SYS       21              0.0000000000
       731        21  MOL       C11             3.7423085963       -3.2307911261        5.2973950056  SYS       21              0.0000000000
       732        21  MOL       C12             5.9623464100       -2.1261169325        5.3128521371  SYS       21              0.0000000000
       733        21  MOL       H13             7.7724053207       -1.2079930574        5.1387122764  SYS       21              0.0000000000
       734        21  MOL       H14             8.7864236196       -0.4067694077        3.0734799839  SYS       21              0.0000000000
       735        21  MOL       C15             7.9985889153       -0.5630213847        1.1902817295  SYS       21              0.0000000000
       736        21  MOL       C16             6.8332398792       -0.8867247021       -0.9630532776  SYS       21              0.0000000000
       737        21  MOL       C17             3.8035078390       -3.3504034157        6.6441967554  SYS       21              0.0000000000
       738        21  MOL       H18             2.9907352155       -3.5641379819        4.8223917079  SYS       21              0.0000000000
       739        21  MOL       C19             5.9731524791       -2.2767595563        6.7423141890  SYS       21              0.0000000000
       740        21  MOL       C20             9.0557036834        0.0928251307        0.5154092613  SYS       21              0.0000000000
       741        21  MOL       C21             7.8753606107       -0.2414334405       -1.6150778495  SYS       21              0.0000000000
       742        21  MOL       H22             6.0922629373       -1.2122272211       -1.4616104191  SYS       21              0.0000000000
       743        21  MOL       C23             4.9262755428       -2.8640530853        7.3760892346  SYS       21              0.0000000000
       744        21  MOL       H24             3.0900397878       -3.7687422911        7.1114071960  SYS       21              0.0000000000
       745        21  MOL       H25             6.7191475233       -1.9630846764        7.2406323092  SYS       21              0.0000000000
       746        21  MOL       H26             9.7994563139        0.4217393822        1.0072650519  SYS       21              0.0000000000
       747        21  MOL       C27             9.0082513796        0.2472754637       -0.8651664381  SYS       21              0.0000000000
       748        21  MOL       C28             7.8598105732       -0.0408663540       -3.0383497052  SYS       21              0.0000000000
       749        21  MOL       H29             4.9368400641       -2.9633898216        8.3212129103  SYS       21              0.0000000000
       750        21  MOL       C30            10.0830297689        0.8962567416       -1.5749994220  SYS       21              0.0000000000
       751        21  MOL       C31             8.8986047292        0.5761254629       -3.6570286410  SYS       21              0.0000000000
       752        21  MOL       H32             7.1163341597       -0.3487603960       -3.5439835245  SYS       21              0.0000000000
       753        21  MOL       C33            10.0265250761        1.0415558206       -2.9194780593  SYS       21              0.0000000000
       754        21  MOL       H34            10.8321683585        1.2222109030       -1.0911026806  SYS       21              0.0000000000
       755        21  MOL       H35             8.8820212364        0.7099911498       -4.5977959471  SYS       21              0.0000000000
       756        21  MOL       H36            10.7369632967        1.4729250973       -3.3793995312  SYS       21              0.0000000000
       757        22  MOL       C1              4.8821925025        7.9323858604       18.5196534801  SYS       22              0.0000000000
       758        22  MOL       C2              3.8520214078        7.2544738911       19.2141043367  SYS       22              0.0000000000
       759        22  MOL       C3              6.0320667766        8.4397555214       19.2536497078  SYS       22              0.0000000000
       760        22  MOL       C4              4.8020413871        8.1139737549       17.1311012853  SYS       22              0.0000000000
       761        22  MOL       C5              3.9432965103        7.0728541331       20.5891603314  SYS       22              0.0000000000
       762        22  MOL       H6              3.1000077190        6.9216248188       18.7376994817  SYS       22              0.0000000000
       763        22  MOL       C7              6.1015209594        8.2428361448       20.6435232003  SYS       22              0.0000000000
       764        22  MOL       C8              7.0539195182        9.1043711438       18.5626273000  SYS       22              0.0000000000
       765        22  MOL       C9              5.8249442621        8.7795686269       16.4425795994  SYS       22              0.0000000000
       766        22  MOL       H10             4.0511104919        7.7812754537       16.6551011708  SYS       22              0.0000000000
       767        22  MOL       C11             2.9061176146        6.3845834007       21.3176735304  SYS       22              0.0000000000
       768        22  MOL       C12             5.0893132381        7.5691604179       21.3137089952  SYS       22              0.0000000000
       769        22  MOL       H13             6.8517304788        8.5709309516       21.1263248301  SYS       22              0.0000000000
       770        22  MOL       H14             7.8073490139        9.4321260358       19.0381083332  SYS       22              0.0000000000
       771        22  MOL       C15             6.9840034595        9.2726557775       17.1718478082  SYS       22              0.0000000000
       772        22  MOL       C16             5.7444418166        8.9651352422       15.0517403402  SYS       22              0.0000000000
       773        22  MOL       C17             3.0134787649        6.2051985570       22.6549177347  SYS       22              0.0000000000
       774        22  MOL       H18             2.1471069323        6.0560652300       20.8512087391  SYS       22              0.0000000000
       775        22  MOL       C19             5.1503147011        7.3468814758       22.7325263276  SYS       22              0.0000000000
       776        22  MOL       C20             8.0269145989        9.9094997883       16.4578133588  SYS       22              0.0000000000
       777        22  MOL       C21             6.7726882309        9.5978423471       14.3662160849  SYS       22              0.0000000000
       778        22  MOL       H22             4.9845151545        8.6462535151       14.5780486111  SYS       22              0.0000000000
       779        22  MOL       C23             4.1474031899        6.6907997409       23.3699124552  SYS       22              0.0000000000
       780        22  MOL       H24             2.3289696175        5.7457270921       23.1267894022  SYS       22              0.0000000000
       781        22  MOL       H25             5.8987357795        7.6655824237       23.2239702011  SYS       22              0.0000000000
       782        22  MOL       H26             8.7890653459       10.2317982499       16.9252795282  SYS       22              0.0000000000
       783        22  MOL       C27             7.9369793584       10.0669141572       15.0796884525  SYS       22              0.0000000000
       784        22  MOL       C28             6.7069241567        9.7916885814       12.9434474954  SYS       22              0.0000000000
       785        22  MOL       H29             4.1923834419        6.5512037327       24.3089161241  SYS       22              0.0000000000
       786        22  MOL       C30             8.9893256665       10.7079483737       14.3301348976  SYS       22              0.0000000000
       787        22  MOL       C31             7.7294414981       10.3969283133       12.2871861303  SYS       22              0.0000000000
       788        22  MOL       H32             5.9434909880        9.4908013010       12.4640122871  SYS       22              0.0000000000
       789        22  MOL       C33             8.8818692384       10.8572430737       12.9892055118  SYS       22              0.0000000000
       790        22  MOL       H34             9.7568297613       11.0308761359       14.7864965121  SYS       22              0.0000000000
       791        22  MOL       H35             7.6864548297       10.5189174647       11.3456400868  SYS       22              0.0000000000
       792        22  MOL       H36             9.5798106672       11.2816281837       12.5043295288  SYS       22              0.0000000000
       793        23  MOL       C1              4.1337510594        7.2154015302      -11.0313484695  SYS       23              0.0000000000
       794        23  MOL       C2              3.1206187834        6.5629225541      -10.2891131351  SYS       23              0.0000000000
       795        23  MOL       C3              5.3020760330        7.7283332000      -10.3311319748  SYS       23              0.0000000000
       796        23  MOL       C4              4.0254043862        7.3762460412      -12.4205444975  SYS       23              0.0000000000
       797        23  MOL       C5              3.2355703904        6.4366427345       -8.9096438877  SYS       23              0.0000000000
       798        23  MOL       H6              2.3561641249        6.2189285105      -10.7369432947  SYS       23              0.0000000000
       799        23  MOL       C7              5.4010348716        7.5905530645       -8.9359354899  SYS       23              0.0000000000
       800        23  MOL       C8              6.3184086968        8.3674528007      -11.0536297061  SYS       23              0.0000000000
       801        23  MOL       C9              5.0359046895        8.0217711248      -13.1455241111  SYS       23              0.0000000000
       802        23  MOL       H10             3.2613001794        7.0418336229      -12.8738375302  SYS       23              0.0000000000
       803        23  MOL       C11             2.2038624161        5.7950340483       -8.1324019093  SYS       23              0.0000000000
       804        23  MOL       C12             4.3940227830        6.9555446940       -8.2216221985  SYS       23              0.0000000000
       805        23  MOL       H13             6.1601827915        7.9364463248       -8.4802928372  SYS       23              0.0000000000
       806        23  MOL       H14             7.0812790700        8.7047800748      -10.6004182868  SYS       23              0.0000000000
       807        23  MOL       C15             6.2113954869        8.5165495621      -12.4442388878  SYS       23              0.0000000000
       808        23  MOL       C16             4.9433379978        8.1965650014      -14.5370081985  SYS       23              0.0000000000
       809        23  MOL       C17             2.3266493463        5.6854650857       -6.7889565578  SYS       23              0.0000000000
       810        23  MOL       H18             1.4364450665        5.4483013869       -8.5711021243  SYS       23              0.0000000000
       811        23  MOL       C19             4.4747037304        6.8079798941       -6.7940764222  SYS       23              0.0000000000
       812        23  MOL       C20             7.2416005708        9.1626996747      -13.1682876775  SYS       23              0.0000000000
       813        23  MOL       C21             5.9588910549        8.8316295789      -15.2390747511  SYS       23              0.0000000000
       814        23  MOL       H22             4.1788925713        7.8718876576      -14.9993562862  SYS       23              0.0000000000
       815        23  MOL       C23             3.4747893464        6.1927492103       -6.1127554645  SYS       23              0.0000000000
       816        23  MOL       H24             1.6430015578        5.2601255147       -6.2849311406  SYS       23              0.0000000000
       817        23  MOL       H25             5.2316662432        7.1477863726       -6.3306535087  SYS       23              0.0000000000
       818        23  MOL       H26             8.0066263683        9.4942477144      -12.7121231179  SYS       23              0.0000000000
       819        23  MOL       C27             7.1264725556        9.3204648619      -14.5444968090  SYS       23              0.0000000000
       820        23  MOL       C28             5.8862457209        9.0209718243      -16.6621151245  SYS       23              0.0000000000
       821        23  MOL       H29             3.5299144851        6.0987731858       -5.1686326522  SYS       23              0.0000000000
       822        23  MOL       C30             8.1599110548        9.9892817244      -15.2960798199  SYS       23              0.0000000000
       823        23  MOL       C31             6.8950119681        9.6401272790      -17.3266247237  SYS       23              0.0000000000
       824        23  MOL       H32             5.1259603356        8.7050175111      -17.1368366033  SYS       23              0.0000000000
       825        23  MOL       C33             8.0412903237       10.1329166723      -16.6366862245  SYS       23              0.0000000000
       826        23  MOL       H34             8.9249968041       10.3245492708      -14.8445820161  SYS       23              0.0000000000
       827        23  MOL       H35             6.8449016837        9.7549631542      -18.2687180523  SYS       23              0.0000000000
       828        23  MOL       H36             8.7261512119       10.5687620356      -17.1299752488  SYS       23              0.0000000000
       829        24  MOL       C1             -5.8580484496       10.5005360425       -8.7062677152  SYS       24              0.0000000000
       830        24  MOL       C2             -6.9256470702       10.4449197896       -7.7763545184  SYS       24              0.0000000000
       831        24  MOL       C3             -4.6072627600        9.8134457891       -8.3953456365  SYS       24              0.0000000000
       832        24  MOL       C4             -5.9773026134       11.2156905252       -9.9052648063  SYS       24              0.0000000000
       833        24  MOL       C5             -6.7712586415        9.7750156295       -6.5757871832  SYS       24              0.0000000000
       834        24  MOL       H6             -7.7423801385       10.8884151678       -7.9738732440  SYS       24              0.0000000000
       835        24  MOL       C7             -4.4764078679        9.1225484760       -7.1740517310  SYS       24              0.0000000000
       836        24  MOL       C8             -3.5402707494        9.8606722891       -9.3001993682  SYS       24              0.0000000000
       837        24  MOL       C9             -4.9065290355       11.2800251636      -10.8045798710  SYS       24              0.0000000000
       838        24  MOL       H10            -6.7886751621       11.6675354633      -10.1049178808  SYS       24              0.0000000000
       839        24  MOL       C11            -7.8237622348        9.7351777726       -5.6084058758  SYS       24              0.0000000000
       840        24  MOL       C12            -5.5255005979        9.1099405278       -6.2656457653  SYS       24              0.0000000000
       841        24  MOL       H13            -3.6600793976        8.6829777692       -6.9666305850  SYS       24              0.0000000000
       842        24  MOL       H14            -2.7267086775        9.4142997319       -9.0971749474  SYS       24              0.0000000000
       843        24  MOL       C15            -3.6611014847       10.5827158559      -10.4949020677  SYS       24              0.0000000000
       844        24  MOL       C16            -5.0044559025       12.0086520035      -12.0068835635  SYS       24              0.0000000000
       845        24  MOL       C17            -7.6460431278        9.1089488690       -4.4212348463  SYS       24              0.0000000000
       846        24  MOL       H18            -8.6493241612       10.1643252176       -5.7992931760  SYS       24              0.0000000000
       847        24  MOL       C19            -5.3893364946        8.4521299506       -5.0063386233  SYS       24              0.0000000000
       848        24  MOL       C20            -2.5792734450       10.6457492338      -11.4077401916  SYS       24              0.0000000000
       849        24  MOL       C21            -3.9366579196       12.0544470546      -12.8921328023  SYS       24              0.0000000000
       850        24  MOL       H22            -5.8113572057       12.4660029126      -12.2127440638  SYS       24              0.0000000000
       851        24  MOL       C23            -6.4097605175        8.4584385378       -4.1137413523  SYS       24              0.0000000000
       852        24  MOL       H24            -8.3441481357        9.0995905197       -3.7774299473  SYS       24              0.0000000000
       853        24  MOL       H25            -4.5708964733        8.0152924749       -4.8000239558  SYS       24              0.0000000000
       854        24  MOL       H26            -1.7690804099       10.1916179037      -11.2074736614  SYS       24              0.0000000000
       855        24  MOL       C27            -2.7059779357       11.3602562904      -12.5856175004  SYS       24              0.0000000000
       856        24  MOL       C28            -4.0245884097       12.7778090459      -14.1193758759  SYS       24              0.0000000000
       857        24  MOL       H29            -6.3161381816        8.0325802530       -3.2695645458  SYS       24              0.0000000000
       858        24  MOL       C30            -1.6285641711       11.4207641990      -13.5240714640  SYS       24              0.0000000000
       859        24  MOL       C31            -2.9775692001       12.8042972384      -14.9802382531  SYS       24              0.0000000000
       860        24  MOL       H32            -4.8253329204       13.2435589316      -14.3317954031  SYS       24              0.0000000000
       861        24  MOL       C33            -1.7622021023       12.1120892925      -14.6805023101  SYS       24              0.0000000000
       862        24  MOL       H34            -0.8152386626       10.9689287688      -13.3330103771  SYS       24              0.0000000000
       863        24  MOL       H35            -3.0408336231       13.2894974765      -15.7946909791  SYS       24              0.0000000000
       864        24  MOL       H36            -1.0434281447       12.1458213408      -15.3002999251  SYS       24              0.0000000000
       865        25  MOL       C1              6.6475731414       -5.7681848474       14.2768378181  SYS       25              0.0000000000
       866        25  MOL       C2              7.6990896850       -5.1429090096       13.5652043451  SYS       25              0.0000000000
       867        25  MOL       C3              5.4794181275       -6.2475402960       13.5529472886  SYS       25              0.0000000000
       868        25  MOL       C4              6.7159867833       -5.9161161945       15.6700038000  SYS       25              0.0000000000
       869        25  MOL       C5              7.6072702785       -4.9792794308       12.1879278925  SYS       25              0.0000000000
       870        25  MOL       H6              8.4609432502       -4.8224046575       14.0343853171  SYS       25              0.0000000000
       871        25  MOL       C7              5.4103994236       -6.0746462454       12.1598595256  SYS       25              0.0000000000
       872        25  MOL       C8              4.4397281709       -6.8729237877       14.2539103416  SYS       25              0.0000000000
       873        25  MOL       C9              5.6730676477       -6.5363740805       16.3707239786  SYS       25              0.0000000000
       874        25  MOL       H10             7.4742286509       -5.5934911147       16.1413251406  SYS       25              0.0000000000
       875        25  MOL       C11             8.6541002301       -4.3204655398       11.4461061796  SYS       25              0.0000000000
       876        25  MOL       C12             6.4434668818       -5.4496470255       11.4745128558  SYS       25              0.0000000000
       877        25  MOL       H13             4.6468891026       -6.3845922624       11.6859994246  SYS       25              0.0000000000
       878        25  MOL       H14             3.6810785397       -7.1956869096       13.7833402709  SYS       25              0.0000000000
       879        25  MOL       C15             4.5120743381       -7.0312221617       15.6457376388  SYS       25              0.0000000000
       880        25  MOL       C16             5.7386738250       -6.6921295086       17.7659965446  SYS       25              0.0000000000
       881        25  MOL       C17             8.5438588664       -4.1566720336       10.1070968705  SYS       25              0.0000000000
       882        25  MOL       H18             9.4180740951       -3.9944257486       11.9061635609  SYS       25              0.0000000000
       883        25  MOL       C19             6.3818784604       -5.2498944240       10.0523745032  SYS       25              0.0000000000
       884        25  MOL       C20             3.4737498399       -7.6777357086       16.3577640454  SYS       25              0.0000000000
       885        25  MOL       C21             4.7141073065       -7.3310996311       18.4512214024  SYS       25              0.0000000000
       886        25  MOL       H22             6.4939022995       -6.3649121324       18.2415138230  SYS       25              0.0000000000
       887        25  MOL       C23             7.3987743974       -4.6296017262        9.4014555834  SYS       25              0.0000000000
       888        25  MOL       H24             9.2360904790       -3.7193258382        9.6255645554  SYS       25              0.0000000000
       889        25  MOL       H25             5.6212963085       -5.5529423282        9.5697791825  SYS       25              0.0000000000
       890        25  MOL       H26             2.7179041878       -8.0133516946       15.8894330310  SYS       25              0.0000000000
       891        25  MOL       C27             3.5654144718       -7.8344831842       17.7358510212  SYS       25              0.0000000000
       892        25  MOL       C28             4.7713241976       -7.5109664594       19.8761936431  SYS       25              0.0000000000
       893        25  MOL       H29             7.3541949607       -4.5008841653        8.4608798967  SYS       25              0.0000000000
       894        25  MOL       C30             2.5298341604       -8.5077802394       18.4804533610  SYS       25              0.0000000000
       895        25  MOL       C31             3.7601846893       -8.1373371248       20.5302521348  SYS       25              0.0000000000
       896        25  MOL       H32             5.5228042057       -7.1857612641       20.3586258726  SYS       25              0.0000000000
       897        25  MOL       C33             2.6310982980       -8.6452279468       19.8231302064  SYS       25              0.0000000000
       898        25  MOL       H34             1.7756249397       -8.8565071488       18.0209223040  SYS       25              0.0000000000
       899        25  MOL       H35             3.7998509544       -8.2491865216       21.4732020054  SYS       25              0.0000000000
       900        25  MOL       H36             1.9438984371       -9.0887660470       20.3062036828  SYS       25              0.0000000000
       901        26  MOL       C1             -5.6915777562        3.3826635111      -11.0823123343  SYS       26              0.0000000000
       902        26  MOL       C2             -6.7431768654        3.3160458823      -10.1350531612  SYS       26              0.0000000000
       903        26  MOL       C3             -4.4386152175        2.6841726939      -10.8076746609  SYS       26              0.0000000000
       904        26  MOL       C4             -5.8374428063        4.1090175861      -12.2715955931  SYS       26              0.0000000000
       905        26  MOL       C5             -6.5848607524        2.5938979255       -8.9656910983  SYS       26              0.0000000000
       906        26  MOL       H6             -7.5595355244        3.7699463888      -10.3090864121  SYS       26              0.0000000000
       907        26  MOL       C7             -4.3010040809        1.9537498100       -9.6103582909  SYS       26              0.0000000000
       908        26  MOL       C8             -3.3889241427        2.7483247592      -11.7315229865  SYS       26              0.0000000000
       909        26  MOL       C9             -4.7888167109        4.1740894330      -13.1965883088  SYS       26              0.0000000000
       910        26  MOL       H10            -6.6534008427        4.5612340043      -12.4506581854  SYS       26              0.0000000000
       911        26  MOL       C11            -7.6367899593        2.5147705930       -8.0001025359  SYS       26              0.0000000000
       912        26  MOL       C12            -5.3449182486        1.9003336811       -8.6974805098  SYS       26              0.0000000000
       913        26  MOL       H13            -3.4874892197        1.4971019608       -9.4306239813  SYS       26              0.0000000000
       914        26  MOL       H14            -2.5733126827        2.2950672093      -11.5535169186  SYS       26              0.0000000000
       915        26  MOL       C15            -3.5333443787        3.4824132442      -12.9162248103  SYS       26              0.0000000000
       916        26  MOL       C16            -4.9228755469        4.8981723477      -14.3981510632  SYS       26              0.0000000000
       917        26  MOL       C17            -7.4728644139        1.8005122606       -6.8616451477  SYS       26              0.0000000000
       918        26  MOL       H18            -8.4561796075        2.9669776566       -8.1621746228  SYS       26              0.0000000000
       919        26  MOL       C19            -5.2192904808        1.1631359909       -7.4818049254  SYS       26              0.0000000000
       920        26  MOL       C20            -2.4726126172        3.5575137263      -13.8526043289  SYS       26              0.0000000000
       921        26  MOL       C21            -3.8783008741        4.9460212332      -15.3105819655  SYS       26              0.0000000000
       922        26  MOL       H22            -5.7369336821        5.3517835059      -14.5830412429  SYS       26              0.0000000000
       923        26  MOL       C23            -6.2463073619        1.1133033643       -6.5981828858  SYS       26              0.0000000000
       924        26  MOL       H24            -8.1750090354        1.7518529096       -6.2240338815  SYS       26              0.0000000000
       925        26  MOL       H25            -4.4091209090        0.7021676142       -7.2964128766  SYS       26              0.0000000000
       926        26  MOL       H26            -1.6548892069        3.1081580566      -13.6732649615  SYS       26              0.0000000000
       927        26  MOL       C27            -2.6323416549        4.2690332336      -15.0282726248  SYS       26              0.0000000000
       928        26  MOL       C28            -4.0041641348        5.6634853502      -16.5379831074  SYS       26              0.0000000000
       929        26  MOL       H29            -6.1602810940        0.6210541001       -5.7900708611  SYS       26              0.0000000000
       930        26  MOL       C30            -1.5743433210        4.3447518950      -15.9874825494  SYS       26              0.0000000000
       931        26  MOL       C31            -2.9682453248        5.7208137954      -17.4106918355  SYS       26              0.0000000000
       932        26  MOL       H32            -4.8168362161        6.1150797184      -16.7351211588  SYS       26              0.0000000000
       933        26  MOL       C33            -1.7355554537        5.0511178627      -17.1312393205  SYS       26              0.0000000000
       934        26  MOL       H34            -0.7527639984        3.9002944804      -15.8153692122  SYS       26              0.0000000000
       935        26  MOL       H35            -3.0507445280        6.2121003968      -18.2197568913  SYS       26              0.0000000000
       936        26  MOL       H36            -1.0271135043        5.1040876758      -17.7614989020  SYS       26              0.0000000000
       937        27  MOL       C1             -3.0427385397       -3.3918565756       15.7225718636  SYS       27              0.0000000000
       938        27  MOL       C2             -1.9642026253       -3.3106538843       14.8072768622  SYS       27              0.0000000000
       939        27  MOL       C3             -4.2846348925       -2.6803552014       15.4315570180  SYS       27              0.0000000000
       940        27  MOL       C4             -2.9345382972       -4.1577755529       16.8908707780  SYS       27              0.0000000000
       941        27  MOL       C5             -2.0909043674       -2.5741359681       13.6430357680  SYS       27              0.0000000000
       942        27  MOL       H6             -1.1553553468       -3.7730688492       14.9935379417  SYS       27              0.0000000000
       943        27  MOL       C7             -4.3920408439       -1.9465818125       14.2331991913  SYS       27              0.0000000000
       944        27  MOL       C8             -5.3477497651       -2.7455038839       16.3398548750  SYS       27              0.0000000000
       945        27  MOL       C9             -4.0047766895       -4.2366133768       17.7896682796  SYS       27              0.0000000000
       946        27  MOL       H10            -2.1308768708       -4.6315979415       17.0696759068  SYS       27              0.0000000000
       947        27  MOL       C11            -1.0121608464       -2.4873899232       12.7081748138  SYS       27              0.0000000000
       948        27  MOL       C12            -3.3276328079       -1.8871762815       13.3446822066  SYS       27              0.0000000000
       949        27  MOL       H13            -5.2010137732       -1.4897536851       14.0344305530  SYS       27              0.0000000000
       950        27  MOL       H14            -6.1555497551       -2.2815886953       16.1538643284  SYS       27              0.0000000000
       951        27  MOL       C15            -5.2380697711       -3.5050246230       17.5121859071  SYS       27              0.0000000000
       952        27  MOL       C16            -3.9093912094       -5.0192461913       18.9577472111  SYS       27              0.0000000000
       953        27  MOL       C17            -1.1475346023       -1.7734433799       11.5657755601  SYS       27              0.0000000000
       954        27  MOL       H18            -0.1957556272       -2.9374296163       12.8901220000  SYS       27              0.0000000000
       955        27  MOL       C19            -3.4215151566       -1.1490778793       12.1266892873  SYS       27              0.0000000000
       956        27  MOL       C20            -6.3123139231       -3.5918144474       18.4320041350  SYS       27              0.0000000000
       957        27  MOL       C21            -4.9750139407       -5.0894654357       19.8440165704  SYS       27              0.0000000000
       958        27  MOL       H22            -3.1086699721       -5.4981571016       19.1369899212  SYS       27              0.0000000000
       959        27  MOL       C23            -2.3701662931       -1.0912642281       11.2726646837  SYS       27              0.0000000000
       960        27  MOL       H24            -0.4263843476       -1.7185988457       10.9502616969  SYS       27              0.0000000000
       961        27  MOL       H25            -4.2272281728       -0.6896528692       11.9193441956  SYS       27              0.0000000000
       962        27  MOL       H26            -7.1178274511       -3.1197255170       18.2558374102  SYS       27              0.0000000000
       963        27  MOL       C27            -6.1960797387       -4.3637947456       19.5741535740  SYS       27              0.0000000000
       964        27  MOL       C28            -4.8873361040       -5.8680553793       21.0370044958  SYS       27              0.0000000000
       965        27  MOL       H29            -2.4335192475       -0.5889915211       10.4686351863  SYS       27              0.0000000000
       966        27  MOL       C30            -7.2705474512       -4.4616195947       20.5128371701  SYS       27              0.0000000000
       967        27  MOL       C31            -5.9301703488       -5.9227304952       21.9016097461  SYS       27              0.0000000000
       968        27  MOL       H32            -4.0893981278       -6.3486588338       21.2255571473  SYS       27              0.0000000000
       969        27  MOL       C33            -7.1409079339       -5.2095854400       21.6339359439  SYS       27              0.0000000000
       970        27  MOL       H34            -8.0791174650       -3.9912894664       20.3480279031  SYS       27              0.0000000000
       971        27  MOL       H35            -5.8681941607       -6.4405593693       22.6958182212  SYS       27              0.0000000000
       972        27  MOL       H36            -7.8564817698       -5.2651151341       22.2558631638  SYS       27              0.0000000000
       973        28  MOL       C1             -6.2832352754       -4.5648772990      -11.6737062572  SYS       28              0.0000000000
       974        28  MOL       C2             -7.3590535659       -4.6223510426      -10.7534289568  SYS       28              0.0000000000
       975        28  MOL       C3             -5.0414975593       -5.2715336317      -11.3704659751  SYS       28              0.0000000000
       976        28  MOL       C4             -6.3939561788       -3.8173586701      -12.8536292658  SYS       28              0.0000000000
       977        28  MOL       C5             -7.2291044799       -5.3339652369       -9.5741547007  SYS       28              0.0000000000
       978        28  MOL       H6             -8.1639725247       -4.1538774147      -10.9415582716  SYS       28              0.0000000000
       979        28  MOL       C7             -4.9409038153       -6.0010218077      -10.1689049884  SYS       28              0.0000000000
       980        28  MOL       C8             -3.9723700532       -5.2040401034      -12.2715062512  SYS       28              0.0000000000
       981        28  MOL       C9             -5.3189741048       -3.7420912317      -13.7470557715  SYS       28              0.0000000000
       982        28  MOL       H10            -7.1983628855       -3.3484023253      -13.0416729174  SYS       28              0.0000000000
       983        28  MOL       C11            -8.2927911496       -5.3698216103       -8.6189256955  SYS       28              0.0000000000
       984        28  MOL       C12            -6.0020342752       -6.0378011801       -9.2752577757  SYS       28              0.0000000000
       985        28  MOL       H13            -4.1335256394       -6.4589273891       -9.9661710015  SYS       28              0.0000000000
       986        28  MOL       H14            -3.1637459077       -5.6637364282      -12.0787450271  SYS       28              0.0000000000
       987        28  MOL       C15            -4.0816105753       -4.4607009876      -13.4542044249  SYS       28              0.0000000000
       988        28  MOL       C16            -5.4104427804       -2.9679828264      -14.9211130784  SYS       28              0.0000000000
       989        28  MOL       C17            -8.1578152876       -6.0613875734       -7.4627942971  SYS       28              0.0000000000
       990        28  MOL       H18            -9.0996056669       -4.9024927208       -8.8000666049  SYS       28              0.0000000000
       991        28  MOL       C19            -5.9081088203       -6.7518937806       -8.0430403986  SYS       28              0.0000000000
       992        28  MOL       C20            -3.0089939473       -4.3916687659      -14.3774198200  SYS       28              0.0000000000
       993        28  MOL       C21            -4.3369060639       -2.8926218155      -15.7973525212  SYS       28              0.0000000000
       994        28  MOL       H22            -6.2098676890       -2.4892544380      -15.1065235813  SYS       28              0.0000000000
       995        28  MOL       C23            -6.9472675496       -6.7659194049       -7.1724157428  SYS       28              0.0000000000
       996        28  MOL       H24            -8.8684651072       -6.0810228045       -6.8331005459  SYS       28              0.0000000000
       997        28  MOL       H25            -5.1076559805       -7.2205110609       -7.8358933802  SYS       28              0.0000000000
       998        28  MOL       H26            -2.2052619738       -4.8653163848      -14.1973432683  SYS       28              0.0000000000
       999        28  MOL       C27            -3.1226988695       -3.6292468320      -15.5262249785  SYS       28              0.0000000000
      1000        28  MOL       C28            -4.4048427154       -2.0888404912      -16.9748201798  SYS       28              0.0000000000
      1001        28  MOL       H29            -6.8789766652       -7.2421714472       -6.3531018537  SYS       28              0.0000000000
      1002        28  MOL       C30            -2.0469456095       -3.5437291783      -16.4646380613  SYS       28              0.0000000000
      1003        28  MOL       C31            -3.3506452283       -2.0229150750      -17.8247356853  SYS       28              0.0000000000
      1004        28  MOL       H32            -5.1946470018       -1.5933433177      -17.1590171848  SYS       28              0.0000000000
      1005        28  MOL       C33            -2.1556668806       -2.7658426835      -17.5674499475  SYS       28              0.0000000000
      1006        28  MOL       H34            -1.2459524988       -4.0281169162      -16.3035897856  SYS       28              0.0000000000
      1007        28  MOL       H35            -3.3971824531       -1.4806025248      -18.6035079739  SYS       28              0.0000000000
      1008        28  MOL       H36            -1.4331663557       -2.7056991014      -18.1808818260  SYS       28              0.0000000000
      1009        29  MOL       C1             -5.1082385541      -10.7850126000       15.1135058356  SYS       29              0.0000000000
      1010        29  MOL       C2             -6.1814391115      -10.8382166344       16.0370903902  SYS       29              0.0000000000
      1011        29  MOL       C3             -3.8858482355      -11.5312739225       15.4000129810  SYS       29              0.0000000000
      1012        29  MOL       C4             -5.2023217486      -10.0243070774       13.9405876857  SYS       29              0.0000000000
      1013        29  MOL       C5             -6.0692248063      -11.5808779554       17.1989128421  SYS       29              0.0000000000
      1014        29  MOL       H6             -6.9823484234      -10.3622731011       15.8506051722  SYS       29              0.0000000000
      1015        29  MOL       C7             -3.7868309938      -12.2634601352       16.6000629136  SYS       29              0.0000000000
      1016        29  MOL       C8             -2.8299097582      -11.5080769082       14.4813626608  SYS       29              0.0000000000
      1017        29  MOL       C9             -4.1370639718       -9.9798198713       13.0335544311  SYS       29              0.0000000000
      1018        29  MOL       H10            -5.9919869592       -9.5265512426       13.7644666979  SYS       29              0.0000000000
      1019        29  MOL       C11            -7.1556701549      -11.6700197645       18.1245843313  SYS       29              0.0000000000
      1020        29  MOL       C12            -4.8465453629      -12.2932176592       17.4956497948  SYS       29              0.0000000000
      1021        29  MOL       H13            -2.9914157340      -12.7474280934       16.7890806104  SYS       29              0.0000000000
      1022        29  MOL       H14            -2.0367374106      -11.9988170831       14.6613690971  SYS       29              0.0000000000
      1023        29  MOL       C15            -2.9271846264      -10.7512361059       13.3062068827  SYS       29              0.0000000000
      1024        29  MOL       C16            -4.2023056184       -9.1876341441       11.8698507731  SYS       29              0.0000000000
      1025        29  MOL       C17            -7.0435870962      -12.4142778922       19.2500349089  SYS       29              0.0000000000
      1026        29  MOL       H18            -7.9653579272      -11.2094124490       17.9390995661  SYS       29              0.0000000000
      1027        29  MOL       C19            -4.7664255574      -13.0415111147       18.7083936338  SYS       29              0.0000000000
      1028        29  MOL       C20            -1.8542534262      -10.7078293456       12.3817973214  SYS       29              0.0000000000
      1029        29  MOL       C21            -3.1328265505       -9.1434723125       10.9865500423  SYS       29              0.0000000000
      1030        29  MOL       H22            -4.9808219647       -8.6708694684       11.6980815164  SYS       29              0.0000000000
      1031        29  MOL       C23            -5.8285265433      -13.1076163816       19.5483974814  SYS       29              0.0000000000
      1032        29  MOL       H24            -7.7733139996      -12.4786978096       19.8544119842  SYS       29              0.0000000000
      1033        29  MOL       H25            -3.9691921869      -13.5167013259       18.9129663774  SYS       29              0.0000000000
      1034        29  MOL       H26            -1.0659067895      -11.2089269481       12.5554794734  SYS       29              0.0000000000
      1035        29  MOL       C27            -1.9439217241       -9.9246110758       11.2449164811  SYS       29              0.0000000000
      1036        29  MOL       C28            -3.1703721362       -8.3226631709        9.8195142351  SYS       29              0.0000000000
      1037        29  MOL       H29            -5.7782519239      -13.6231354997       20.3449321027  SYS       29              0.0000000000
      1038        29  MOL       C30            -0.8610322646       -9.8579458695       10.3132064251  SYS       29              0.0000000000
      1039        29  MOL       C31            -2.1147332885       -8.2843790893        8.9696931824  SYS       29              0.0000000000
      1040        29  MOL       H32            -3.9399277455       -7.7934672766        9.6435237057  SYS       29              0.0000000000
      1041        29  MOL       C33            -0.9436432112       -9.0676487349        9.2169730372  SYS       29              0.0000000000
      1042        29  MOL       H34            -0.0737876988      -10.3645336794       10.4737454401  SYS       29              0.0000000000
      1043        29  MOL       H35            -2.1422294430       -7.7296728681        8.1987847168  SYS       29              0.0000000000
      1044        29  MOL       H36            -0.2188027171       -9.0226921898        8.6050023714  SYS       29              0.0000000000
      1045        30  MOL       C1             -3.3416306388        9.5516780173        4.7242923358  SYS       30              0.0000000000
      1046        30  MOL       C2             -4.4207003672        9.5331378323        5.6423682145  SYS       30              0.0000000000
      1047        30  MOL       C3             -2.1414830101        8.7695379657        5.0091308959  SYS       30              0.0000000000
      1048        30  MOL       C4             -3.4178999420       10.3126345993        3.5502439603  SYS       30              0.0000000000
      1049        30  MOL       C5             -4.3322018864        8.7868643174        6.8039245657  SYS       30              0.0000000000
      1050        30  MOL       H6             -5.2050728163       10.0358875161        5.4559350657  SYS       30              0.0000000000
      1051        30  MOL       C7             -2.0826280538        8.0074784194        6.1931166418  SYS       30              0.0000000000
      1052        30  MOL       C8             -1.0712274088        8.7898043744        4.1071304584  SYS       30              0.0000000000
      1053        30  MOL       C9             -2.3444722074       10.3331755192        2.6520270844  SYS       30              0.0000000000
      1054        30  MOL       H10            -4.2027801866       10.8138732987        3.3629650805  SYS       30              0.0000000000
      1055        30  MOL       C11            -5.4142394351        8.7547963555        7.7384532448  SYS       30              0.0000000000
      1056        30  MOL       C12            -3.1420767026        8.0171258810        7.0894599926  SYS       30              0.0000000000
      1057        30  MOL       H13            -1.3070127887        7.4909818798        6.3782933005  SYS       30              0.0000000000
      1058        30  MOL       H14            -0.2908242072        8.2795810667        4.2887719724  SYS       30              0.0000000000
      1059        30  MOL       C15            -1.1390492495        9.5597769590        2.9384543114  SYS       30              0.0000000000
      1060        30  MOL       C16            -2.4209183442       11.0850464275        1.4625452487  SYS       30              0.0000000000
      1061        30  MOL       C17            -5.3252671572        8.0131722018        8.8677004820  SYS       30              0.0000000000
      1062        30  MOL       H18            -6.2048421467        9.2491512091        7.5575703641  SYS       30              0.0000000000
      1063        30  MOL       C19            -3.0900149088        7.2628974430        8.3000544458  SYS       30              0.0000000000
      1064        30  MOL       C20            -0.0627845427        9.5930883036        2.0175074124  SYS       30              0.0000000000
      1065        30  MOL       C21            -1.3623574349       11.0844288911        0.5651020171  SYS       30              0.0000000000
      1066        30  MOL       H22            -3.2084987710       11.5804341132        1.2703312409  SYS       30              0.0000000000
      1067        30  MOL       C23            -4.1443078923        7.2579255284        9.1523903295  SYS       30              0.0000000000
      1068        30  MOL       H24            -6.0502622829        7.9895755538        9.4806835115  SYS       30              0.0000000000
      1069        30  MOL       H25            -2.3158214646        6.7483412022        8.4977743921  SYS       30              0.0000000000
      1070        30  MOL       H26             0.7239102313        9.0919274462        2.1983494150  SYS       30              0.0000000000
      1071        30  MOL       C27            -0.1596258254       10.3360115260        0.8544699373  SYS       30              0.0000000000
      1072        30  MOL       C28            -1.4445055842       11.8112520014       -0.6604956947  SYS       30              0.0000000000
      1073        30  MOL       H29            -4.1142694120        6.7421340655        9.9497683814  SYS       30              0.0000000000
      1074        30  MOL       C30             0.9095483782       10.3697583065       -0.0946902950  SYS       30              0.0000000000
      1075        30  MOL       C31            -0.4076551880       11.8038931511       -1.5339497490  SYS       30              0.0000000000
      1076        30  MOL       H32            -2.2332550481       12.3034304323       -0.8576541550  SYS       30              0.0000000000
      1077        30  MOL       C33             0.7894977120       11.0771043111       -1.2428937835  SYS       30              0.0000000000
      1078        30  MOL       H34             1.7064460577        9.8834510735        0.0802878214  SYS       30              0.0000000000
      1079        30  MOL       H35            -0.4646791986       12.2873453437       -2.3499014269  SYS       30              0.0000000000
      1080        30  MOL       H36             1.5028208545       11.0901651910       -1.8697290446  SYS       30              0.0000000000
      1081        31  MOL       C1             -3.7746618895        1.7783703434        3.7457161338  SYS       31              0.0000000000
      1082        31  MOL       C2             -4.8397414383        1.7284422400        4.6788352445  SYS       31              0.0000000000
      1083        31  MOL       C3             -2.5294953058        1.0797415642        4.0534634398  SYS       31              0.0000000000
      1084        31  MOL       C4             -3.8973513345        2.4859393745        2.5425723797  SYS       31              0.0000000000
      1085        31  MOL       C5             -4.7074253310        1.0129186787        5.8554778320  SYS       31              0.0000000000
      1086        31  MOL       H6             -5.6502765082        2.1859051364        4.4877454527  SYS       31              0.0000000000
      1087        31  MOL       C7             -2.4174924135        0.3579706033        5.2586700354  SYS       31              0.0000000000
      1088        31  MOL       C8             -1.4638933353        1.1357732048        3.1474747664  SYS       31              0.0000000000
      1089        31  MOL       C9             -2.8339655528        2.5402826065        1.6338809797  SYS       31              0.0000000000
      1090        31  MOL       H10            -4.7092151103        2.9377294599        2.3448009277  SYS       31              0.0000000000
      1091        31  MOL       C11            -5.7796058875        0.9458652534        6.7994641438  SYS       31              0.0000000000
      1092        31  MOL       C12            -3.4775984912        0.3134000930        6.1531779950  SYS       31              0.0000000000
      1093        31  MOL       H13            -1.6091890367       -0.0999609011        5.4576235436  SYS       31              0.0000000000
      1094        31  MOL       H14            -0.6512987671        0.6855146295        3.3457369479  SYS       31              0.0000000000
      1095        31  MOL       C15            -1.5841700265        1.8539374107        1.9503802864  SYS       31              0.0000000000
      1096        31  MOL       C16            -2.9405921955        3.2450100677        0.4181462770  SYS       31              0.0000000000
      1097        31  MOL       C17            -5.6459518244        0.2313461746        7.9417079239  SYS       31              0.0000000000
      1098        31  MOL       H18            -6.5925706693        1.4027390501        6.6191516837  SYS       31              0.0000000000
      1099        31  MOL       C19            -3.3824044163       -0.4185377581        7.3747814365  SYS       31              0.0000000000
      1100        31  MOL       C20            -0.5040312305        1.9196580938        1.0357330769  SYS       31              0.0000000000
      1101        31  MOL       C21            -1.8745630350        3.2917531362       -0.4691827715  SYS       31              0.0000000000
      1102        31  MOL       H22            -3.7529822671        3.6892631220        0.2053090047  SYS       31              0.0000000000
      1103        31  MOL       C23            -4.4295717155       -0.4619363632        8.2347768338  SYS       31              0.0000000000
      1104        31  MOL       H24            -6.3636102827        0.1908346694        8.5623914855  SYS       31              0.0000000000
      1105        31  MOL       H25            -2.5790984775       -0.8823489799        7.5817005290  SYS       31              0.0000000000
      1106        31  MOL       H26             0.3102581043        1.4747621724        1.2400740064  SYS       31              0.0000000000
      1107        31  MOL       C27            -0.6323021152        2.6258800970       -0.1469614610  SYS       31              0.0000000000
      1108        31  MOL       C28            -1.9726202226        3.9815566369       -1.7148415581  SYS       31              0.0000000000
      1109        31  MOL       H29            -4.3669846454       -0.9564586691        9.0436559654  SYS       31              0.0000000000
      1110        31  MOL       C30             0.4487114912        2.6947868180       -1.0806846034  SYS       31              0.0000000000
      1111        31  MOL       C31            -0.9252148241        4.0113893209       -2.5751245426  SYS       31              0.0000000000
      1112        31  MOL       H32            -2.7846801572        4.4204031047       -1.9411361240  SYS       31              0.0000000000
      1113        31  MOL       C33             0.3059451099        3.3587668247       -2.2519531821  SYS       31              0.0000000000
      1114        31  MOL       H34             1.2701336296        2.2624602056       -0.8793953699  SYS       31              0.0000000000
      1115        31  MOL       H35            -0.9981929582        4.4694454837       -3.4043492627  SYS       31              0.0000000000
      1116        31  MOL       H36             1.0261158911        3.3943040082       -2.8700260605  SYS       31              0.0000000000
      1117        32  MOL       C1              2.9856580818       -8.4048010539      -12.1322122170  SYS       32              0.0000000000
      1118        32  MOL       C2              1.9398526360       -9.0317276237      -11.4136489556  SYS       32              0.0000000000
      1119        32  MOL       C3              4.1518020900       -7.9067315521      -11.4177752326  SYS       32              0.0000000000
      1120        32  MOL       C4              2.9043102575       -8.2695588546      -13.5259724696  SYS       32              0.0000000000
      1121        32  MOL       C5              2.0378069545       -9.1804964470      -10.0351103606  SYS       32              0.0000000000
      1122        32  MOL       H6              1.1781014458       -9.3608384939      -11.8770017783  SYS       32              0.0000000000
      1123        32  MOL       C7              4.2226686542       -8.0615050111      -10.0226506661  SYS       32              0.0000000000
      1124        32  MOL       C8              5.1807200863       -7.2794934182      -12.1328339711  SYS       32              0.0000000000
      1125        32  MOL       C9              3.9369419358       -7.6455328438      -14.2384837268  SYS       32              0.0000000000
      1126        32  MOL       H10             2.1452920678       -8.6026680207      -13.9886723171  SYS       32              0.0000000000
      1127        32  MOL       C11             0.9910405854       -9.8338804425       -9.2884125191  SYS       32              0.0000000000
      1128        32  MOL       C12             3.2011299375       -8.6970106588       -9.3297266603  SYS       32              0.0000000000
      1129        32  MOL       H13             4.9823113972       -7.7358762155       -9.5531118183  SYS       32              0.0000000000
      1130        32  MOL       H14             5.9392487293       -6.9454422615      -11.6700104522  SYS       32              0.0000000000
      1131        32  MOL       C15             5.0996882681       -7.1369907608      -13.5258890328  SYS       32              0.0000000000
      1132        32  MOL       C16             3.8574986706       -7.5059746310      -15.6347507966  SYS       32              0.0000000000
      1133        32  MOL       C17             1.1102381283       -9.9999351261       -7.9504494448  SYS       32              0.0000000000
      1134        32  MOL       H18             0.2229446862      -10.1572997546       -9.7434283915  SYS       32              0.0000000000
      1135        32  MOL       C19             3.2720781485       -8.9005470606       -7.9085612886  SYS       32              0.0000000000
      1136        32  MOL       C20             6.1297158017       -6.4969971888      -14.2556360037  SYS       32              0.0000000000
      1137        32  MOL       C21             4.8731630544       -6.8699476654      -16.3357843423  SYS       32              0.0000000000
      1138        32  MOL       H22             3.1007376583       -7.8446703165      -16.0996765376  SYS       32              0.0000000000
      1139        32  MOL       C23             2.2662124939       -9.5369507861       -7.2560581080  SYS       32              0.0000000000
      1140        32  MOL       H24             0.4226102533      -10.4410184391       -7.4657401638  SYS       32              0.0000000000
      1141        32  MOL       H25             4.0340640328       -8.5933065548       -7.4308560769  SYS       32              0.0000000000
      1142        32  MOL       H26             6.8912832222       -6.1589700122      -13.7984408914  SYS       32              0.0000000000
      1143        32  MOL       C27             6.0278793076       -6.3597511399      -15.6350883368  SYS       32              0.0000000000
      1144        32  MOL       C28             4.8043625151       -6.7120365197      -17.7628450596  SYS       32              0.0000000000
      1145        32  MOL       H29             2.3211141823       -9.6818508405       -6.3183865570  SYS       32              0.0000000000
      1146        32  MOL       C30             7.0636750010       -5.7088012800      -16.3990122279  SYS       32              0.0000000000
      1147        32  MOL       C31             5.8112187323       -6.0958830210      -18.4330176118  SYS       32              0.0000000000
      1148        32  MOL       H32             4.0500247137       -7.0461345668      -18.2346230307  SYS       32              0.0000000000
      1149        32  MOL       C33             6.9499140982       -5.5870079027      -17.7421995712  SYS       32              0.0000000000
      1150        32  MOL       H34             7.8276460494       -5.3653711898      -15.9517820762  SYS       32              0.0000000000
      1151        32  MOL       H35             5.7652547068       -5.9974414091      -19.3771758167  SYS       32              0.0000000000
      1152        32  MOL       H36             7.6363174294       -5.1555714762      -18.2372175057  SYS       32              0.0000000000
      1153        33  MOL       C1             -2.5822266238        4.2268298041       16.3279060401  SYS       33              0.0000000000
      1154        33  MOL       C2             -1.5269219294        4.2992414952       15.3852040271  SYS       33              0.0000000000
      1155        33  MOL       C3             -3.8279456124        4.9395530444       16.0569075511  SYS       33              0.0000000000
      1156        33  MOL       C4             -2.4440182911        3.4967153236       17.5158003183  SYS       33              0.0000000000
      1157        33  MOL       C5             -1.6723918726        5.0427164299       14.2275975246  SYS       33              0.0000000000
      1158        33  MOL       H6             -0.7110244525        3.8457711409       15.5624909332  SYS       33              0.0000000000
      1159        33  MOL       C7             -3.9575280931        5.6835892345       14.8671010825  SYS       33              0.0000000000
      1160        33  MOL       C8             -4.8739540005        4.8932469508       16.9859849248  SYS       33              0.0000000000
      1161        33  MOL       C9             -3.4907414879        3.4428830119       18.4436662667  SYS       33              0.0000000000
      1162        33  MOL       H10            -1.6321649067        3.0370720281       17.6946095299  SYS       33              0.0000000000
      1163        33  MOL       C11            -0.6037873187        5.1589110877       13.2843263168  SYS       33              0.0000000000
      1164        33  MOL       C12            -2.9096624244        5.7408867490       13.9589984172  SYS       33              0.0000000000
      1165        33  MOL       H13            -4.7622313947        6.1587983843       14.6960251638  SYS       33              0.0000000000
      1166        33  MOL       H14            -5.6806516645        5.3648399133       16.8151353514  SYS       33              0.0000000000
      1167        33  MOL       C15            -4.7341032475        4.1591699059       18.1712419344  SYS       33              0.0000000000
      1168        33  MOL       C16            -3.3661483699        2.7113738870       19.6417446730  SYS       33              0.0000000000
      1169        33  MOL       C17            -0.7457023620        5.9208451896       12.1741739312  SYS       33              0.0000000000
      1170        33  MOL       H18             0.2168933874        4.7106581886       13.4507910350  SYS       33              0.0000000000
      1171        33  MOL       C19            -3.0204970334        6.5135852667       12.7641082185  SYS       33              0.0000000000
      1172        33  MOL       C20            -5.7899046174        4.1061593160       19.1146781537  SYS       33              0.0000000000
      1173        33  MOL       C21            -4.4133281887        2.6664797590       20.5513351734  SYS       33              0.0000000000
      1174        33  MOL       H22            -2.5591028340        2.2443885043       19.8240638110  SYS       33              0.0000000000
      1175        33  MOL       C23            -1.9719339276        6.6083459596       11.9099591112  SYS       33              0.0000000000
      1176        33  MOL       H24            -0.0272756282        6.0051469455       11.5588047974  SYS       33              0.0000000000
      1177        33  MOL       H25            -3.8259271806        6.9844894889       12.5830881017  SYS       33              0.0000000000
      1178        33  MOL       H26            -6.5990372327        4.5729402834       18.9409696578  SYS       33              0.0000000000
      1179        33  MOL       C27            -5.6458845318        3.3710380775       20.2777879062  SYS       33              0.0000000000
      1180        33  MOL       C28            -4.3044660493        1.9269563243       21.7672151129  SYS       33              0.0000000000
      1181        33  MOL       H29            -2.0386088125        7.1425947239       11.1270877176  SYS       33              0.0000000000
      1182        33  MOL       C30            -6.7118052054        3.2892368885       21.2276821910  SYS       33              0.0000000000
      1183        33  MOL       C31            -5.3422660793        1.8767508128       22.6381257782  SYS       33              0.0000000000
      1184        33  MOL       H32            -3.5006058152        1.4579958764       21.9598847919  SYS       33              0.0000000000
      1185        33  MOL       C33            -6.5655889426        2.5647972846       22.3621114959  SYS       33              0.0000000000
      1186        33  MOL       H34            -7.5277253916        3.7442955349       21.0563525208  SYS       33              0.0000000000
      1187        33  MOL       H35            -5.2675725569        1.3759412731       23.4420944241  SYS       33              0.0000000000
      1188        33  MOL       H36            -7.2776855622        2.5121231788       22.9882638573  SYS       33              0.0000000000
      1189        34  MOL       C1             -3.7676703765       -5.5786075164        2.0842454195  SYS       34              0.0000000000
      1190        34  MOL       C2             -4.8621977085       -5.6570497488        2.9806020845  SYS       34              0.0000000000
      1191        34  MOL       C3             -2.5297524328       -6.2862103121        2.4006120500  SYS       34              0.0000000000
      1192        34  MOL       C4             -3.8699593205       -4.8447664468        0.8950121448  SYS       34              0.0000000000
      1193        34  MOL       C5             -4.7657665726       -6.4168581440        4.1327138568  SYS       34              0.0000000000
      1194        34  MOL       H6             -5.6661004117       -5.1913927644        2.7814570969  SYS       34              0.0000000000
      1195        34  MOL       C7             -2.4597136605       -7.0589309588        3.5770551117  SYS       34              0.0000000000
      1196        34  MOL       C8             -1.4452766231       -6.2097281722        1.5188381106  SYS       34              0.0000000000
      1197        34  MOL       C9             -2.7949523472       -4.7953394518       -0.0001859044  SYS       34              0.0000000000
      1198        34  MOL       H10            -4.6804474100       -4.3953938219        0.6863882754  SYS       34              0.0000000000
      1199        34  MOL       C11            -5.8640534833       -6.5096656412        5.0439383591  SYS       34              0.0000000000
      1200        34  MOL       C12            -3.5510983921       -7.1424672903        4.4302004479  SYS       34              0.0000000000
      1201        34  MOL       H13            -1.6638420532       -7.5382082365        3.7758509509  SYS       34              0.0000000000
      1202        34  MOL       H14            -0.6412474316       -6.6742753403        1.7190469944  SYS       34              0.0000000000
      1203        34  MOL       C15            -1.5491639253       -5.4854103766        0.3239185894  SYS       34              0.0000000000
      1204        34  MOL       C16            -2.9093073855       -4.1073659274       -1.2247822692  SYS       34              0.0000000000
      1205        34  MOL       C17            -5.7776509128       -7.2895514848        6.1473124759  SYS       34              0.0000000000
      1206        34  MOL       H18            -6.6626625099       -6.0275544812        4.8651915055  SYS       34              0.0000000000
      1207        34  MOL       C19            -3.5097726994       -7.9514092842        5.6053663661  SYS       34              0.0000000000
      1208        34  MOL       C20            -0.4739163726       -5.4361737942       -0.5975025971  SYS       34              0.0000000000
      1209        34  MOL       C21            -1.8519092684       -4.0949507242       -2.1235097080  SYS       34              0.0000000000
      1210        34  MOL       H22            -3.7215637735       -3.6637441693       -1.4394387502  SYS       34              0.0000000000
      1211        34  MOL       C23            -4.5847971066       -8.0274375014        6.4279094397  SYS       34              0.0000000000
      1212        34  MOL       H24            -6.5138591544       -7.3560311781        6.7435513574  SYS       34              0.0000000000
      1213        34  MOL       H25            -2.7234586025       -8.4463844667        5.8052325737  SYS       34              0.0000000000
      1214        34  MOL       H26             0.3371451847       -5.8875890293       -0.3946278756  SYS       34              0.0000000000
      1215        34  MOL       C27            -0.6109699838       -4.7614244918       -1.7974605104  SYS       34              0.0000000000
      1216        34  MOL       C28            -1.9691057778       -3.4354153136       -3.3838223334  SYS       34              0.0000000000
      1217        34  MOL       H29            -4.5547569598       -8.5746763322        7.2040422590  SYS       34              0.0000000000
      1218        34  MOL       C30             0.4562263276       -4.7176356044       -2.7484347611  SYS       34              0.0000000000
      1219        34  MOL       C31            -0.9304281048       -3.4275363440       -4.2550981118  SYS       34              0.0000000000
      1220        34  MOL       H32            -2.7815909539       -2.9955359034       -3.6065570180  SYS       34              0.0000000000
      1221        34  MOL       C33             0.3031238426       -4.0747115186       -3.9300988501  SYS       34              0.0000000000
      1222        34  MOL       H34             1.2772704872       -5.1513332214       -2.5485576591  SYS       34              0.0000000000
      1223        34  MOL       H35            -1.0116505981       -2.9898938061       -5.0945186310  SYS       34              0.0000000000
      1224        34  MOL       H36             1.0152300510       -4.0547422812       -4.5581346022  SYS       34              0.0000000000
      1225        35  MOL       C1              6.5961714654        1.6165089382       16.4257093233  SYS       35              0.0000000000
      1226        35  MOL       C2              7.6577928672        2.2425863755       15.7299606736  SYS       35              0.0000000000
      1227        35  MOL       C3              5.4171964578        1.1818122029       15.6912421715  SYS       35              0.0000000000
      1228        35  MOL       C4              6.6779708724        1.4121989795       17.8110041796  SYS       35              0.0000000000
      1229        35  MOL       C5              7.5683092087        2.4397386982       14.3569277190  SYS       35              0.0000000000
      1230        35  MOL       H6              8.4285521734        2.5328754389       16.2042359606  SYS       35              0.0000000000
      1231        35  MOL       C7              5.3503577155        1.3891771587       14.3027603403  SYS       35              0.0000000000
      1232        35  MOL       C8              4.3747153687        0.5454967460       16.3780789254  SYS       35              0.0000000000
      1233        35  MOL       C9              5.6370347314        0.7707993996       18.4954510115  SYS       35              0.0000000000
      1234        35  MOL       H10             7.4467242526        1.7030549486       18.2859594652  SYS       35              0.0000000000
      1235        35  MOL       C11             8.6351308147        3.0835082613       13.6305390118  SYS       35              0.0000000000
      1236        35  MOL       C12             6.3947280941        2.0120290049       13.6327614259  SYS       35              0.0000000000
      1237        35  MOL       H13             4.5851785545        1.0974173456       13.8201269370  SYS       35              0.0000000000
      1238        35  MOL       H14             3.6110053023        0.2451240538       15.9009157804  SYS       35              0.0000000000
      1239        35  MOL       C15             4.4640907747        0.3218338652       17.7599119544  SYS       35              0.0000000000
      1240        35  MOL       C16             5.7156655939        0.5504786137       19.8813173093  SYS       35              0.0000000000
      1241        35  MOL       C17             8.5334730000        3.2813328649       12.2954515559  SYS       35              0.0000000000
      1242        35  MOL       H18             9.4080757457        3.3755740572       14.0983685857  SYS       35              0.0000000000
      1243        35  MOL       C19             6.3440059817        2.2422966391       12.2148136791  SYS       35              0.0000000000
      1244        35  MOL       C20             3.4368378524       -0.3661016332       18.4488062254  SYS       35              0.0000000000
      1245        35  MOL       C21             4.6954067263       -0.1152552347       20.5472172713  SYS       35              0.0000000000
      1246        35  MOL       H22             6.4773614837        0.8545711309       20.3618431193  SYS       35              0.0000000000
      1247        35  MOL       C23             7.3775380631        2.8516171498       11.5799311947  SYS       35              0.0000000000
      1248        35  MOL       H24             9.2387998960        3.7100636847       11.8253095300  SYS       35              0.0000000000
      1249        35  MOL       H25             5.5801703611        1.9608571503       11.7243359077  SYS       35              0.0000000000
      1250        35  MOL       H26             2.6778933180       -0.6829795316       17.9725014175  SYS       35              0.0000000000
      1251        35  MOL       C27             3.5498165363       -0.6001226749       19.8142972934  SYS       35              0.0000000000
      1252        35  MOL       C28             4.7579922883       -0.3504435637       21.9638828042  SYS       35              0.0000000000
      1253        35  MOL       H29             7.3407444097        2.9952042737       10.6411729065  SYS       35              0.0000000000
      1254        35  MOL       C30             2.5396521484       -1.3428307875       20.5271371901  SYS       35              0.0000000000
      1255        35  MOL       C31             3.7748796818       -1.0498458059       22.5858650642  SYS       35              0.0000000000
      1256        35  MOL       H32             5.5013558778       -0.0276235138       22.4602891569  SYS       35              0.0000000000
      1257        35  MOL       C33             2.6626931021       -1.5639130746       21.8567653164  SYS       35              0.0000000000
      1258        35  MOL       H34             1.7859110592       -1.6766794402       20.0559363350  SYS       35              0.0000000000
      1259        35  MOL       H35             3.8227833510       -1.2080177912       23.5217737242  SYS       35              0.0000000000
      1260        35  MOL       H36             1.9952228020       -2.0579114319       22.3180447327  SYS       35              0.0000000000
      1261        36  MOL       C1              3.5334035705       -0.6744011440      -11.6437236189  SYS       36              0.0000000000
      1262        36  MOL       C2              2.4888302276       -1.3212406388      -10.9411965082  SYS       36              0.0000000000
      1263        36  MOL       C3              4.7021664775       -0.2087696267      -10.9118999551  SYS       36              0.0000000000
      1264        36  MOL       C4              3.4516658687       -0.4787893579      -13.0302770865  SYS       36              0.0000000000
      1265        36  MOL       C5              2.5851177856       -1.5086098429       -9.5672542439  SYS       36              0.0000000000
      1266        36  MOL       H6              1.7222851384       -1.6285507264      -11.4115621454  SYS       36              0.0000000000
      1267        36  MOL       C7              4.7765294417       -0.4027688788       -9.5218697836  SYS       36              0.0000000000
      1268        36  MOL       C8              5.7397761152        0.4333331665      -11.6007244254  SYS       36              0.0000000000
      1269        36  MOL       C9              4.4897302285        0.1601919400      -13.7213155966  SYS       36              0.0000000000
      1270        36  MOL       H10             2.6898307479       -0.7871673937      -13.5053262561  SYS       36              0.0000000000
      1271        36  MOL       C11             1.5332274145       -2.1667978950       -8.8320649630  SYS       36              0.0000000000
      1272        36  MOL       C12             3.7479471996       -1.0463054693       -8.8470129964  SYS       36              0.0000000000
      1273        36  MOL       H13             5.5375073784       -0.0927942347       -9.0439720555  SYS       36              0.0000000000
      1274        36  MOL       H14             6.5009106690        0.7437144345      -11.1258569215  SYS       36              0.0000000000
      1275        36  MOL       C15             5.6586436089        0.6232554577      -12.9881041886  SYS       36              0.0000000000
      1276        36  MOL       C16             4.4249726578        0.3516012713      -15.1121852461  SYS       36              0.0000000000
      1277        36  MOL       C17             1.6446727093       -2.3532888443       -7.4961276620  SYS       36              0.0000000000
      1278        36  MOL       H18             0.7625533257       -2.4730755701       -9.2945217074  SYS       36              0.0000000000
      1279        36  MOL       C19             3.8128257306       -1.2686706686       -7.4283811826  SYS       36              0.0000000000
      1280        36  MOL       C20             6.7086162590        1.2673954565      -13.6850405048  SYS       36              0.0000000000
      1281        36  MOL       C21             5.4662017553        0.9740054429      -15.7874685104  SYS       36              0.0000000000
      1282        36  MOL       H22             3.6654463201        0.0427280788      -15.5930958772  SYS       36              0.0000000000
      1283        36  MOL       C23             2.7976889344       -1.9031591740       -6.7884925683  SYS       36              0.0000000000
      1284        36  MOL       H24             0.9519290766       -2.7962399105       -7.0204909488  SYS       36              0.0000000000
      1285        36  MOL       H25             4.5741614957       -0.9716924611       -6.9432077266  SYS       36              0.0000000000
      1286        36  MOL       H26             7.4705488383        1.5790402216      -13.2100552799  SYS       36              0.0000000000
      1287        36  MOL       C27             6.6233937625        1.4414167438      -15.0614668943  SYS       36              0.0000000000
      1288        36  MOL       C28             5.4256763817        1.1676830175      -17.2112024835  SYS       36              0.0000000000
      1289        36  MOL       H29             2.8452244818       -2.0571990571       -5.8518761875  SYS       36              0.0000000000
      1290        36  MOL       C30             7.6814936005        2.0976279148      -15.7894777331  SYS       36              0.0000000000
      1291        36  MOL       C31             6.4521779888        1.7859837315      -17.8488030665  SYS       36              0.0000000000
      1292        36  MOL       H32             4.6729779086        0.8613218606      -17.7039593482  SYS       36              0.0000000000
      1293        36  MOL       C33             7.5883506565        2.2604385889      -17.1299047115  SYS       36              0.0000000000
      1294        36  MOL       H34             8.4423837012        2.4188414212      -15.3209919424  SYS       36              0.0000000000
      1295        36  MOL       H35             6.4208609071        1.9108711818      -18.7904295973  SYS       36              0.0000000000
      1296        36  MOL       H36             8.2877891476        2.6962259414      -17.6023503264  SYS       36              0.0000000000
      1297        37  MOL       C1             -2.2819928630        6.7415552404      -10.6706717172  SYS       37              0.0000000000
      1298        37  MOL       C2             -3.3200953708        6.1296761979       -9.9283602181  SYS       37              0.0000000000
      1299        37  MOL       C3             -1.1047934957        7.2471232272       -9.9800285551  SYS       37              0.0000000000
      1300        37  MOL       C4             -2.3848580873        6.8593386669      -12.0645947248  SYS       37              0.0000000000
      1301        37  MOL       C5             -3.2020842291        6.0054622325       -8.5489617553  SYS       37              0.0000000000
      1302        37  MOL       H6             -4.0911793140        5.7985760499      -10.3745406080  SYS       37              0.0000000000
      1303        37  MOL       C7             -1.0103563324        7.1115590599       -8.5843017134  SYS       37              0.0000000000
      1304        37  MOL       C8             -0.0847373938        7.8655708288      -10.7151591701  SYS       37              0.0000000000
      1305        37  MOL       C9             -1.3660424799        7.4834576101      -12.7966461157  SYS       37              0.0000000000
      1306        37  MOL       H10            -3.1523656151        6.5244529124      -12.5117470520  SYS       37              0.0000000000
      1307        37  MOL       C11            -4.2438144393        5.3746974699       -7.7762249784  SYS       37              0.0000000000
      1308        37  MOL       C12            -2.0289447589        6.4987544000       -7.8670147963  SYS       37              0.0000000000
      1309        37  MOL       H13            -0.2434202628        7.4418039985       -8.1300932983  SYS       37              0.0000000000
      1310        37  MOL       H14             0.6810168029        8.2032339159      -10.2670903846  SYS       37              0.0000000000
      1311        37  MOL       C15            -0.1934756952        8.0010469638      -12.1070276142  SYS       37              0.0000000000
      1312        37  MOL       C16            -1.4744121525        7.6234758781      -14.1909202476  SYS       37              0.0000000000
      1313        37  MOL       C17            -4.1181140697        5.2632267196       -6.4332055860  SYS       37              0.0000000000
      1314        37  MOL       H18            -5.0163831300        5.0392948685       -8.2146922165  SYS       37              0.0000000000
      1315        37  MOL       C19            -1.9477079628        6.3402924338       -6.4406690750  SYS       37              0.0000000000
      1316        37  MOL       C20             0.8205151634        8.6460713012      -12.8545871605  SYS       37              0.0000000000
      1317        37  MOL       C21            -0.4727381363        8.2611194794      -14.9103730088  SYS       37              0.0000000000
      1318        37  MOL       H22            -2.2413813758        7.2866007070      -14.6401766011  SYS       37              0.0000000000
      1319        37  MOL       C23            -2.9601141025        5.7481048862       -5.7573803121  SYS       37              0.0000000000
      1320        37  MOL       H24            -4.8118567256        4.8516179372       -5.9315792228  SYS       37              0.0000000000
      1321        37  MOL       H25            -1.1798152291        6.6575747820       -5.9792645383  SYS       37              0.0000000000
      1322        37  MOL       H26             1.5857723656        8.9931143831      -12.4104957368  SYS       37              0.0000000000
      1323        37  MOL       C27             0.6930040580        8.7770607900      -14.2325126155  SYS       37              0.0000000000
      1324        37  MOL       C28            -0.5757949162        8.4286423342      -16.3342715752  SYS       37              0.0000000000
      1325        37  MOL       H29            -2.9041942413        5.6466423188       -4.8140794719  SYS       37              0.0000000000
      1326        37  MOL       C30             1.7081694882        9.4383216726      -15.0150478181  SYS       37              0.0000000000
      1327        37  MOL       C31             0.4113306175        9.0566003279      -17.0225940022  SYS       37              0.0000000000
      1328        37  MOL       H32            -1.3408447489        8.0973430267      -16.7905182190  SYS       37              0.0000000000
      1329        37  MOL       C33             1.5643143726        9.5642508207      -16.3549638466  SYS       37              0.0000000000
      1330        37  MOL       H34             2.4776022611        9.7875142163      -14.5818635921  SYS       37              0.0000000000
      1331        37  MOL       H35             0.3437692360        9.1627236421      -17.9646191930  SYS       37              0.0000000000
      1332        37  MOL       H36             2.2370807023       10.0014085639      -16.8634992451  SYS       37              0.0000000000
      1333        38  MOL       C1             -1.2722059942        7.6460298094       18.2620290084  SYS       38              0.0000000000
      1334        38  MOL       C2             -2.3168479128        7.0166774015       18.9801640396  SYS       38              0.0000000000
      1335        38  MOL       C3             -0.1011512828        8.1336557492       18.9756375054  SYS       38              0.0000000000
      1336        38  MOL       C4             -1.3568248683        7.7973431011       16.8701168357  SYS       38              0.0000000000
      1337        38  MOL       C5             -2.2195098532        6.8659263000       20.3585309273  SYS       38              0.0000000000
      1338        38  MOL       H6             -3.0824409765        6.6949276831       18.5179746213  SYS       38              0.0000000000
      1339        38  MOL       C7             -0.0221894445        7.9612077025       20.3682523655  SYS       38              0.0000000000
      1340        38  MOL       C8              0.9257485098        8.7708388731       18.2664947824  SYS       38              0.0000000000
      1341        38  MOL       C9             -0.3270901324        8.4320531487       16.1628697317  SYS       38              0.0000000000
      1342        38  MOL       H10            -2.1165422061        7.4679275635       16.4059224283  SYS       38              0.0000000000
      1343        38  MOL       C11            -3.2721890840        6.2284274552       21.1106278648  SYS       38              0.0000000000
      1344        38  MOL       C12            -1.0503250724        7.3375934257       21.0622226963  SYS       38              0.0000000000
      1345        38  MOL       H13             0.7425987372        8.2759475877       20.8368628442  SYS       38              0.0000000000
      1346        38  MOL       H14             1.6851481153        9.1003449611       18.7311446119  SYS       38              0.0000000000
      1347        38  MOL       C15             0.8366260910        8.9368534647       16.8765408559  SYS       38              0.0000000000
      1348        38  MOL       C16            -0.4070701667        8.5827399701       14.7677904749  SYS       38              0.0000000000
      1349        38  MOL       C17            -3.1613255145        6.0830030942       22.4517052021  SYS       38              0.0000000000
      1350        38  MOL       H18            -4.0416897778        5.9056261346       20.6575508345  SYS       38              0.0000000000
      1351        38  MOL       C19            -0.9818429521        7.1422051633       22.4846520812  SYS       38              0.0000000000
      1352        38  MOL       C20             1.8582225618        9.5989075026       16.1546653574  SYS       38              0.0000000000
      1353        38  MOL       C21             0.6100208667        9.2213216841       14.0711616656  SYS       38              0.0000000000
      1354        38  MOL       H22            -1.1623971266        8.2434570511       14.3009647833  SYS       38              0.0000000000
      1355        38  MOL       C23            -2.0035135058        6.5412682224       23.1461654146  SYS       38              0.0000000000
      1356        38  MOL       H24            -3.8573450149        5.6596253268       22.9402108742  SYS       38              0.0000000000
      1357        38  MOL       H25            -0.2144994748        7.4388569802       22.9604705054  SYS       38              0.0000000000
      1358        38  MOL       H26             2.6128254757        9.9463272598       16.6163455860  SYS       38              0.0000000000
      1359        38  MOL       C27             1.7549054655        9.7471008588       14.7764563040  SYS       38              0.0000000000
      1360        38  MOL       C28             0.5469784481        9.3756379338       12.6434418461  SYS       38              0.0000000000
      1361        38  MOL       H29            -1.9539959354        6.4165277034       24.0870298957  SYS       38              0.0000000000
      1362        38  MOL       C30             2.7739691872       10.4337214478       14.0213076775  SYS       38              0.0000000000
      1363        38  MOL       C31             1.5424721112       10.0173463792       11.9803140581  SYS       38              0.0000000000
      1364        38  MOL       H32            -0.1995247461        9.0307478560       12.1669911214  SYS       38              0.0000000000
      1365        38  MOL       C33             2.6613556184       10.5592269960       12.6783654040  SYS       38              0.0000000000
      1366        38  MOL       H34             3.5248011122       10.7985139701       14.4738434599  SYS       38              0.0000000000
      1367        38  MOL       H35             1.5001597007       10.1173526218       11.0361495756  SYS       38              0.0000000000
      1368        38  MOL       H36             3.3363635087       11.0140594126       12.1886496707  SYS       38              0.0000000000
      1369        39  MOL       C1              0.4415498384       -6.0014324713       14.0681195950  SYS       39              0.0000000000
      1370        39  MOL       C2              1.4711018503       -5.3286038289       13.3678315014  SYS       39              0.0000000000
      1371        39  MOL       C3             -0.7064278670       -6.5155264555       13.3358355791  SYS       39              0.0000000000
      1372        39  MOL       C4              0.5200115513       -6.1728744371       15.4580573465  SYS       39              0.0000000000
      1373        39  MOL       C5              1.3791989728       -5.1627005379       11.9908326571  SYS       39              0.0000000000
      1374        39  MOL       H6              2.2195571459       -4.9845951618       13.8419068152  SYS       39              0.0000000000
      1375        39  MOL       C7             -0.7724423310       -6.3436422323       11.9424772827  SYS       39              0.0000000000
      1376        39  MOL       C8             -1.7275413419       -7.1817309313       14.0264206760  SYS       39              0.0000000000
      1377        39  MOL       C9             -0.4919681583       -6.8565449699       16.1450075672  SYS       39              0.0000000000
      1378        39  MOL       H10             1.2676492271       -5.8327557239       15.9339970950  SYS       39              0.0000000000
      1379        39  MOL       C11             2.4007311152       -4.4514109068       11.2623223376  SYS       39              0.0000000000
      1380        39  MOL       C12             0.2412266230       -5.6777841356       11.2667105317  SYS       39              0.0000000000
      1381        39  MOL       H13            -1.5209578571       -6.6803450670       11.4629841680  SYS       39              0.0000000000
      1382        39  MOL       H14            -2.4768842381       -7.5192069046       13.5512820880  SYS       39              0.0000000000
      1383        39  MOL       C15            -1.6422231778       -7.3675121403       15.4141100217  SYS       39              0.0000000000
      1384        39  MOL       C16            -0.4087964663       -7.0501003586       17.5346003987  SYS       39              0.0000000000
      1385        39  MOL       C17             2.2855485242       -4.2756674223        9.9252454521  SYS       39              0.0000000000
      1386        39  MOL       H18             3.1501374798       -4.1010900380       11.7284512846  SYS       39              0.0000000000
      1387        39  MOL       C19             0.1794432583       -5.4723824506        9.8453855541  SYS       39              0.0000000000
      1388        39  MOL       C20            -2.6627601101       -8.0521066572       16.1161882578  SYS       39              0.0000000000
      1389        39  MOL       C21            -1.4164952007       -7.7243460781       18.2109793196  SYS       39              0.0000000000
      1390        39  MOL       H22             0.3393997468       -6.7110878805       18.0129631355  SYS       39              0.0000000000
      1391        39  MOL       C23             1.1692244530       -4.7969518884        9.2076845592  SYS       39              0.0000000000
      1392        39  MOL       H24             2.9591309182       -3.7984773522        9.4552389989  SYS       39              0.0000000000
      1393        39  MOL       H25            -0.5632901460       -5.8061637432        9.3553257371  SYS       39              0.0000000000
      1394        39  MOL       H26            -3.4168640083       -8.3884222101       15.6455569387  SYS       39              0.0000000000
      1395        39  MOL       C27            -2.5624400925       -8.2279445844       17.4913656305  SYS       39              0.0000000000
      1396        39  MOL       C28            -1.3507377018       -7.9249334865       19.6328134793  SYS       39              0.0000000000
      1397        39  MOL       H29             1.1266654620       -4.6647098335        8.2675042947  SYS       39              0.0000000000
      1398        39  MOL       C30            -3.5968089898       -8.9095213197       18.2300958166  SYS       39              0.0000000000
      1399        39  MOL       C31            -2.3537839528       -8.5715872817       20.2795536990  SYS       39              0.0000000000
      1400        39  MOL       H32            -0.6017615540       -7.5972506011       20.1174578275  SYS       39              0.0000000000
      1401        39  MOL       C33            -3.4865918793       -9.0674007753       19.5698173075  SYS       39              0.0000000000
      1402        39  MOL       H34            -4.3563015554       -9.2456529747       17.7698813436  SYS       39              0.0000000000
      1403        39  MOL       H35            -2.3081705154       -8.7000496567       21.2201146927  SYS       39              0.0000000000
      1404        39  MOL       H36            -4.1727247462       -9.5200216697       20.0459325094  SYS       39              0.0000000000
      1405        40  MOL       C1             -3.2915009594       -8.7834328299      -12.2623328770  SYS       40              0.0000000000
      1406        40  MOL       C2             -4.3208326728       -9.4524314752      -11.5580629157  SYS       40              0.0000000000
      1407        40  MOL       C3             -2.1408206594       -8.2719381078      -11.5324744567  SYS       40              0.0000000000
      1408        40  MOL       C4             -3.3620358541       -8.6325953279      -13.6550813890  SYS       40              0.0000000000
      1409        40  MOL       C5             -4.2310757875       -9.6108564777      -10.1800422053  SYS       40              0.0000000000
      1410        40  MOL       H6             -5.0665617910       -9.8035926057      -12.0311893667  SYS       40              0.0000000000
      1411        40  MOL       C7             -2.0774245714       -8.4316817542      -10.1375506805  SYS       40              0.0000000000
      1412        40  MOL       C8             -1.1078860527       -7.6335003016      -12.2316541003  SYS       40              0.0000000000
      1413        40  MOL       C9             -2.3294131401       -7.9932301345      -14.3538742169  SYS       40              0.0000000000
      1414        40  MOL       H10            -4.1097729331       -8.9764887701      -14.1281437937  SYS       40              0.0000000000
      1415        40  MOL       C11            -5.2555812877      -10.3130227289       -9.4468715709  SYS       40              0.0000000000
      1416        40  MOL       C12            -3.0920763066       -9.0934218458       -9.4592186358  SYS       40              0.0000000000
      1417        40  MOL       H13            -1.3286697770       -8.0935553870       -9.6594348404  SYS       40              0.0000000000
      1418        40  MOL       H14            -0.3547474949       -7.3003916207      -11.7594439710  SYS       40              0.0000000000
      1419        40  MOL       C15            -1.1763637807       -7.4858954952      -13.6248515700  SYS       40              0.0000000000
      1420        40  MOL       C16            -2.3879266016       -7.8491266278      -15.7507134385  SYS       40              0.0000000000
      1421        40  MOL       C17            -5.1437905509      -10.4837732681       -8.1088601792  SYS       40              0.0000000000
      1422        40  MOL       H18            -6.0060347436      -10.6629472499       -9.9116115476  SYS       40              0.0000000000
      1423        40  MOL       C19            -3.0304556169       -9.2947778982       -8.0373078230  SYS       40              0.0000000000
      1424        40  MOL       C20            -0.1326235298       -6.8485193284      -14.3371977242  SYS       40              0.0000000000
      1425        40  MOL       C21            -1.3588195372       -7.2175982178      -16.4360330650  SYS       40              0.0000000000
      1426        40  MOL       H22            -3.1391066349       -8.1853713256      -16.2263456519  SYS       40              0.0000000000
      1427        40  MOL       C23            -4.0191997123       -9.9705899899       -7.3984033330  SYS       40              0.0000000000
      1428        40  MOL       H24            -5.8173952519      -10.9559630828       -7.6338621200  SYS       40              0.0000000000
      1429        40  MOL       H25            -2.2864912508       -8.9595776082       -7.5500919849  SYS       40              0.0000000000
      1430        40  MOL       H26             0.6230335608       -6.5135975474      -13.8680661425  SYS       40              0.0000000000
      1431        40  MOL       C27            -0.2113893791       -6.7144532155      -15.7184718123  SYS       40              0.0000000000
      1432        40  MOL       C28            -1.4043922383       -7.0520567766      -17.8631598620  SYS       40              0.0000000000
      1433        40  MOL       H29            -3.9729822295      -10.1117184335       -6.4596888581  SYS       40              0.0000000000
      1434        40  MOL       C30             0.8412622212       -6.0682223595      -16.4631183315  SYS       40              0.0000000000
      1435        40  MOL       C31            -0.3901105567       -6.4270515544      -18.5136496530  SYS       40              0.0000000000
      1436        40  MOL       H32            -2.1537754269       -7.3785770635      -18.3479596315  SYS       40              0.0000000000
      1437        40  MOL       C33             0.7439624698       -5.9309900302      -17.8061103100  SYS       40              0.0000000000
      1438        40  MOL       H34             1.5999317149       -5.7306113681      -16.0026292262  SYS       40              0.0000000000
      1439        40  MOL       H35            -0.4259334517       -6.3179125342      -19.4570708488  SYS       40              0.0000000000
      1440        40  MOL       H36             1.4379825673       -5.4969001840      -18.2880146451  SYS       40              0.0000000000
      1441        41  MOL       C1             -2.8710251527       -1.0551323136      -11.5047345922  SYS       41              0.0000000000
      1442        41  MOL       C2             -3.9151057549       -1.7327767670      -10.8311079652  SYS       41              0.0000000000
      1443        41  MOL       C3             -1.7429514536       -0.5349709395      -10.7462708871  SYS       41              0.0000000000
      1444        41  MOL       C4             -2.9172054274       -0.8917920945      -12.8970933449  SYS       41              0.0000000000
      1445        41  MOL       C5             -3.8599133340       -1.8940512542       -9.4516007364  SYS       41              0.0000000000
      1446        41  MOL       H6             -4.6497343257       -2.0814381071      -11.3230742538  SYS       41              0.0000000000
      1447        41  MOL       C7             -1.7171630013       -0.6981266921       -9.3505400411  SYS       41              0.0000000000
      1448        41  MOL       C8             -0.6982668477        0.1113980200      -11.4202517107  SYS       41              0.0000000000
      1449        41  MOL       C9             -1.8781749408       -0.2316057928      -13.5664054033  SYS       41              0.0000000000
      1450        41  MOL       H10            -3.6563895896       -1.2284882362      -13.3884221149  SYS       41              0.0000000000
      1451        41  MOL       C11            -4.9046539394       -2.5959226254       -8.7472699977  SYS       41              0.0000000000
      1452        41  MOL       C12            -2.7443817108       -1.3687344027       -8.7004173782  SYS       41              0.0000000000
      1453        41  MOL       H13            -0.9831895943       -0.3568778622       -8.8521524281  SYS       41              0.0000000000
      1454        41  MOL       H14             0.0418952253        0.4464929086      -10.9293005845  SYS       41              0.0000000000
      1455        41  MOL       C15            -0.7373928423        0.2685816536      -12.8135348942  SYS       41              0.0000000000
      1456        41  MOL       C16            -1.9286277238       -0.0528532552      -14.9595498695  SYS       41              0.0000000000
      1457        41  MOL       C17            -4.8307840597       -2.7659140162       -7.4065337939  SYS       41              0.0000000000
      1458        41  MOL       H18            -5.6420116189       -2.9453707238       -9.2328629185  SYS       41              0.0000000000
      1459        41  MOL       C19            -2.7228356144       -1.5718585542       -7.2775863715  SYS       41              0.0000000000
      1460        41  MOL       C20             0.3139910620        0.9155469364      -13.5057104080  SYS       41              0.0000000000
      1461        41  MOL       C21            -0.8956729704        0.5957720625      -15.6227558313  SYS       41              0.0000000000
      1462        41  MOL       H22            -2.6766965824       -0.3783069864      -15.4474338653  SYS       41              0.0000000000
      1463        41  MOL       C23            -3.7273685923       -2.2495177164       -6.6658451080  SYS       41              0.0000000000
      1464        41  MOL       H24            -5.5171274725       -3.2385430685       -6.9505906296  SYS       41              0.0000000000
      1465        41  MOL       H25            -1.9944486449       -1.2342860016       -6.7689424096  SYS       41              0.0000000000
      1466        41  MOL       H26             1.0645654057        1.2436800912      -13.0237960316  SYS       41              0.0000000000
      1467        41  MOL       C27             0.2466144238        1.0800279481      -14.8842974650  SYS       41              0.0000000000
      1468        41  MOL       C28            -0.9365902579        0.7935527000      -17.0459144064  SYS       41              0.0000000000
      1469        41  MOL       H29            -3.7054153618       -2.3901058637       -5.7261690004  SYS       41              0.0000000000
      1470        41  MOL       C30             1.3025450933        1.7396102451      -15.6124113054  SYS       41              0.0000000000
      1471        41  MOL       C31             0.0872764365        1.4202139689      -17.6795771492  SYS       41              0.0000000000
      1472        41  MOL       H32            -1.6854960128        0.4820084477      -17.5411939504  SYS       41              0.0000000000
      1473        41  MOL       C33             1.2185496350        1.8964429037      -16.9541548312  SYS       41              0.0000000000
      1474        41  MOL       H34             2.0596326936        2.0650423436      -15.1406877499  SYS       41              0.0000000000
      1475        41  MOL       H35             0.0574457233        1.5474505269      -18.6209374125  SYS       41              0.0000000000
      1476        41  MOL       H36             1.9184977164        2.3353511930      -17.4229424969  SYS       41              0.0000000000
      1477        42  MOL       C1             -0.4179980985        5.0888788457        4.0783073349  SYS       42              0.0000000000
      1478        42  MOL       C2             -1.4568449600        4.4458103531        4.7926876626  SYS       42              0.0000000000
      1479        42  MOL       C3              0.7516362011        5.5693783953        4.7990438360  SYS       42              0.0000000000
      1480        42  MOL       C4             -0.4937974930        5.2539094412        2.6874461285  SYS       42              0.0000000000
      1481        42  MOL       C5             -1.3507840082        4.2697483380        6.1674054880  SYS       42              0.0000000000
      1482        42  MOL       H6             -2.2234408268        4.1299339230        4.3281152209  SYS       42              0.0000000000
      1483        42  MOL       C7              0.8428142447        5.3748189956        6.1879940301  SYS       42              0.0000000000
      1484        42  MOL       C8              1.7826520670        6.2183926610        4.1068042276  SYS       42              0.0000000000
      1485        42  MOL       C9              0.5455458276        5.8835837929        1.9898182851  SYS       42              0.0000000000
      1486        42  MOL       H10            -1.2486253068        4.9257981192        2.2144351250  SYS       42              0.0000000000
      1487        42  MOL       C11            -2.3893515040        3.6105669829        6.9204298170  SYS       42              0.0000000000
      1488        42  MOL       C12            -0.1787693302        4.7310982865        6.8732261828  SYS       42              0.0000000000
      1489        42  MOL       H13             1.6090780737        5.6845004558        6.6575630621  SYS       42              0.0000000000
      1490        42  MOL       H14             2.5421003646        6.5387838862        4.5777067993  SYS       42              0.0000000000
      1491        42  MOL       C15             1.7041281807        6.3823604338        2.7159684591  SYS       42              0.0000000000
      1492        42  MOL       C16             0.4941536660        6.0216155212        0.5920859991  SYS       42              0.0000000000
      1493        42  MOL       C17            -2.2581619532        3.4289186591        8.2552408850  SYS       42              0.0000000000
      1494        42  MOL       H18            -3.1666204694        3.3026384096        6.4702701178  SYS       42              0.0000000000
      1495        42  MOL       C19            -0.0907918922        4.5101629223        8.2908365886  SYS       42              0.0000000000
      1496        42  MOL       C20             2.7519421119        7.0203095610        2.0101455294  SYS       42              0.0000000000
      1497        42  MOL       C21             1.5373961907        6.6302190315       -0.0926031825  SYS       42              0.0000000000
      1498        42  MOL       H22            -0.2553696357        5.6855909136        0.1136926207  SYS       42              0.0000000000
      1499        42  MOL       C23            -1.0990175190        3.8839978560        8.9495734186  SYS       42              0.0000000000
      1500        42  MOL       H24            -2.9462262877        2.9911148411        8.7422983343  SYS       42              0.0000000000
      1501        42  MOL       H25             0.6779064504        4.8071689596        8.7642410212  SYS       42              0.0000000000
      1502        42  MOL       H26             3.5070982825        7.3537505474        2.4811348556  SYS       42              0.0000000000
      1503        42  MOL       C27             2.6794224367        7.1421035469        0.6273935596  SYS       42              0.0000000000
      1504        42  MOL       C28             1.5113410323        6.7599252345       -1.5239204652  SYS       42              0.0000000000
      1505        42  MOL       H29            -1.0421820106        3.7454889398        9.8880952155  SYS       42              0.0000000000
      1506        42  MOL       C30             3.7409145219        7.7752980404       -0.1159014259  SYS       42              0.0000000000
      1507        42  MOL       C31             2.5424560364        7.3537787751       -2.1771246017  SYS       42              0.0000000000
      1508        42  MOL       H32             0.7657809937        6.4251656109       -2.0089954186  SYS       42              0.0000000000
      1509        42  MOL       C33             3.6663371851        7.8652772925       -1.4643336124  SYS       42              0.0000000000
      1510        42  MOL       H34             4.4945222371        8.1228835118        0.3454775498  SYS       42              0.0000000000
      1511        42  MOL       H35             2.5231352016        7.4372817874       -3.1236403716  SYS       42              0.0000000000
      1512        42  MOL       H36             4.3722106776        8.2785699226       -1.9473051282  SYS       42              0.0000000000
      1513        43  MOL       C1             -0.9249362847       -9.9038639711        1.5278368232  SYS       43              0.0000000000
      1514        43  MOL       C2             -1.9882445817      -10.5396740515        2.2120883475  SYS       43              0.0000000000
      1515        43  MOL       C3              0.2533776831       -9.4802837986        2.2698215588  SYS       43              0.0000000000
      1516        43  MOL       C4             -0.9987370300       -9.6880599361        0.1438362417  SYS       43              0.0000000000
      1517        43  MOL       C5             -1.9008120641      -10.7550888604        3.5825072152  SYS       43              0.0000000000
      1518        43  MOL       H6             -2.7591292127      -10.8202641342        1.7322125436  SYS       43              0.0000000000
      1519        43  MOL       C7              0.3191278599       -9.7100536104        3.6548241530  SYS       43              0.0000000000
      1520        43  MOL       C8              1.3045670159       -8.8467883179        1.5937347515  SYS       43              0.0000000000
      1521        43  MOL       C9              0.0583365029       -9.0652725711       -0.5330244385  SYS       43              0.0000000000
      1522        43  MOL       H10            -1.7648210135       -9.9742865111       -0.3381919271  SYS       43              0.0000000000
      1523        43  MOL       C11            -2.9724297437      -11.4028871728        4.2981754612  SYS       43              0.0000000000
      1524        43  MOL       C12            -0.7288819365      -10.3372198698        4.3150441202  SYS       43              0.0000000000
      1525        43  MOL       H13             1.0859782252       -9.4286833787        4.1409612205  SYS       43              0.0000000000
      1526        43  MOL       H14             2.0727072973       -8.5641145582        2.0745856018  SYS       43              0.0000000000
      1527        43  MOL       C15             1.2335520538       -8.6335630006        0.2091888308  SYS       43              0.0000000000
      1528        43  MOL       C16            -0.0008415295       -8.8648732211       -1.9228760555  SYS       43              0.0000000000
      1529        43  MOL       C17            -2.8719482215      -11.6154232143        5.6310892974  SYS       43              0.0000000000
      1530        43  MOL       H18            -3.7473963505      -11.6826644992        3.8261985427  SYS       43              0.0000000000
      1531        43  MOL       C19            -0.6814990198      -10.5808272422        5.7308767501  SYS       43              0.0000000000
      1532        43  MOL       C20             2.2985384249       -8.0087447204       -0.4825374723  SYS       43              0.0000000000
      1533        43  MOL       C21             1.0512318668       -8.2499594690       -2.5881392510  SYS       43              0.0000000000
      1534        43  MOL       H22            -0.7650424270       -9.1548894239       -2.4081033546  SYS       43              0.0000000000
      1535        43  MOL       C23            -1.7177830238      -11.1960187614        6.3555291933  SYS       43              0.0000000000
      1536        43  MOL       H24            -3.5791178516      -12.0491157445        6.0938544367  SYS       43              0.0000000000
      1537        43  MOL       H25             0.0824093704      -10.3090564782        6.2266651206  SYS       43              0.0000000000
      1538        43  MOL       H26             3.0695988821       -7.7240450175       -0.0053723757  SYS       43              0.0000000000
      1539        43  MOL       C27             2.2186087085       -7.8172354697       -1.8569578356  SYS       43              0.0000000000
      1540        43  MOL       C28             1.0058793940       -8.0293205686       -4.0077988451  SYS       43              0.0000000000
      1541        43  MOL       H29            -1.6835922372      -11.3523985332        7.2923400150  SYS       43              0.0000000000
      1542        43  MOL       C30             3.2936101505       -7.1863528068       -2.5825934979  SYS       43              0.0000000000
      1543        43  MOL       C31             2.0415673292       -7.4182835092       -4.6374972156  SYS       43              0.0000000000
      1544        43  MOL       H32             0.2423309647       -8.3081345940       -4.5002194102  SYS       43              0.0000000000
      1545        43  MOL       C33             3.1990155450       -6.9969807780       -3.9194246403  SYS       43              0.0000000000
      1546        43  MOL       H34             4.0684241991       -6.8999126831       -2.1143776890  SYS       43              0.0000000000
      1547        43  MOL       H35             2.0057299246       -7.2615192941       -5.5741822318  SYS       43              0.0000000000
      1548        43  MOL       H36             3.9072958515       -6.5716275931       -4.3881925508  SYS       43              0.0000000000
      1549        44  MOL       C1              0.1750097922        1.1282470527       16.5985279920  SYS       44              0.0000000000
      1550        44  MOL       C2              1.1989610594        1.7882885433       15.8781474167  SYS       44              0.0000000000
      1551        44  MOL       C3             -0.9943614207        0.6330516425       15.8873755555  SYS       44              0.0000000000
      1552        44  MOL       C4              0.2800794704        0.9494924331       17.9857852464  SYS       44              0.0000000000
      1553        44  MOL       C5              1.0939485037        1.9356964512       14.4999822851  SYS       44              0.0000000000
      1554        44  MOL       H6              1.9623412002        2.1207262423       16.3364165871  SYS       44              0.0000000000
      1555        44  MOL       C7             -1.0849135638        0.8054048019       14.4954545321  SYS       44              0.0000000000
      1556        44  MOL       C8             -2.0116586242       -0.0193154435       16.5965528910  SYS       44              0.0000000000
      1557        44  MOL       C9             -0.7348988578        0.2939243021       18.6953332393  SYS       44              0.0000000000
      1558        44  MOL       H10             1.0433839147        1.2745869382       18.4471325837  SYS       44              0.0000000000
      1559        44  MOL       C11             2.1330227883        2.5905330046       13.7438725960  SYS       44              0.0000000000
      1560        44  MOL       C12            -0.0632864056        1.4345713953       13.7968990208  SYS       44              0.0000000000
      1561        44  MOL       H13            -1.8457385278        0.4761406508       14.0303863313  SYS       44              0.0000000000
      1562        44  MOL       H14            -2.7742680643       -0.3454364490       16.1347808502  SYS       44              0.0000000000
      1563        44  MOL       C15            -1.9057220549       -0.1973334621       17.9838389447  SYS       44              0.0000000000
      1564        44  MOL       C16            -0.6366379940        0.1075226000       20.0849190279  SYS       44              0.0000000000
      1565        44  MOL       C17             2.0261356981        2.7123261147       12.4001207635  SYS       44              0.0000000000
      1566        44  MOL       H18             2.8949611540        2.9324231935       14.1957263678  SYS       44              0.0000000000
      1567        44  MOL       C19            -0.1259053985        1.5981775692       12.3701952642  SYS       44              0.0000000000
      1568        44  MOL       C20            -2.9291283064       -0.8606847483       18.7019502502  SYS       44              0.0000000000
      1569        44  MOL       C21            -1.6465667843       -0.5455995195       20.7784807116  SYS       44              0.0000000000
      1570        44  MOL       H22             0.1287778877        0.4282608988       20.5484094948  SYS       44              0.0000000000
      1571        44  MOL       C23             0.8875588502        2.2089591197       11.7050847996  SYS       44              0.0000000000
      1572        44  MOL       H24             2.7167895902        3.1422307034       11.9097036793  SYS       44              0.0000000000
      1573        44  MOL       H25            -0.8824905607        1.2742180959       11.8949578106  SYS       44              0.0000000000
      1574        44  MOL       H26            -3.6938840368       -1.1893003243       18.2432181334  SYS       44              0.0000000000
      1575        44  MOL       C27            -2.8079605632       -1.0369945274       20.0753872265  SYS       44              0.0000000000
      1576        44  MOL       C28            -1.5612738236       -0.7520543287       22.1984360829  SYS       44              0.0000000000
      1577        44  MOL       H29             0.8444552910        2.3104436049       10.7611138567  SYS       44              0.0000000000
      1578        44  MOL       C30            -3.8311764460       -1.7265984875       20.8221561226  SYS       44              0.0000000000
      1579        44  MOL       C31            -2.5587501867       -1.3973841906       22.8550380154  SYS       44              0.0000000000
      1580        44  MOL       H32            -0.8030946575       -0.4331996606       22.6745847362  SYS       44              0.0000000000
      1581        44  MOL       C33            -3.6990457780       -1.8949175652       22.1586207054  SYS       44              0.0000000000
      1582        44  MOL       H34            -4.5953130544       -2.0630563466       20.3699369718  SYS       44              0.0000000000
      1583        44  MOL       H35            -2.5026073231       -1.5267261321       23.7949086402  SYS       44              0.0000000000
      1584        44  MOL       H36            -4.3759976053       -2.3568578950       22.6389091872  SYS       44              0.0000000000
      1585        45  MOL       C1             -0.2445494880       -2.0864202049        1.9900144322  SYS       45              0.0000000000
      1586        45  MOL       C2             -1.2905020648       -2.7300409473        2.6934450884  SYS       45              0.0000000000
      1587        45  MOL       C3              0.9002062470       -1.5834303499        2.7349445158  SYS       45              0.0000000000
      1588        45  MOL       C4             -0.2964527789       -1.9194911480        0.5982830359  SYS       45              0.0000000000
      1589        45  MOL       C5             -1.2169232834       -2.8840113037        4.0729287418  SYS       45              0.0000000000
      1590        45  MOL       H6             -2.0439795841       -3.0600846091        2.2174014927  SYS       45              0.0000000000
      1591        45  MOL       C7              0.9530063346       -1.7375339759        4.1309436779  SYS       45              0.0000000000
      1592        45  MOL       C8              1.9442570694       -0.9391607044        2.0579781854  SYS       45              0.0000000000
      1593        45  MOL       C9              0.7391670504       -1.2669442769       -0.0836869678  SYS       45              0.0000000000
      1594        45  MOL       H10            -1.0430827950       -2.2497686361        0.1139052107  SYS       45              0.0000000000
      1595        45  MOL       C11            -2.2658223336       -3.5421994856        4.8123793774  SYS       45              0.0000000000
      1596        45  MOL       C12            -0.0721154485       -2.3909299890        4.8015787759  SYS       45              0.0000000000
      1597        45  MOL       H13             1.6988699406       -1.4010286058        4.6146890196  SYS       45              0.0000000000
      1598        45  MOL       H14             2.6905780586       -0.6080448709        2.5422598925  SYS       45              0.0000000000
      1599        45  MOL       C15             1.8859147288       -0.7758136073        0.6660768010  SYS       45              0.0000000000
      1600        45  MOL       C16             0.7000941504       -1.0848761090       -1.4767677074  SYS       45              0.0000000000
      1601        45  MOL       C17            -2.1621719159       -3.7050424768        6.1520308808  SYS       45              0.0000000000
      1602        45  MOL       H18            -3.0267842881       -3.8716268359        4.3497506598  SYS       45              0.0000000000
      1603        45  MOL       C19            -0.0137986046       -2.5871270342        6.2243498723  SYS       45              0.0000000000
      1604        45  MOL       C20             2.9426995187       -0.1225339812       -0.0117954356  SYS       45              0.0000000000
      1605        45  MOL       C21             1.7433895991       -0.4487660322       -2.1358967168  SYS       45              0.0000000000
      1606        45  MOL       H22            -0.0423307023       -1.4133252616       -1.9712213792  SYS       45              0.0000000000
      1607        45  MOL       C23            -1.0262474065       -3.2235154116        6.8666061085  SYS       45              0.0000000000
      1608        45  MOL       H24            -2.8549214873       -4.1479756809        6.6276755785  SYS       45              0.0000000000
      1609        45  MOL       H25             0.7376660478       -2.2685017991        6.7111766596  SYS       45              0.0000000000
      1610        45  MOL       H26             3.6915535001        0.2015802426        0.4754851442  SYS       45              0.0000000000
      1611        45  MOL       C27             2.8792555314        0.0403399246       -1.3907598441  SYS       45              0.0000000000
      1612        45  MOL       C28             1.7398482367       -0.2700365210       -3.5621557940  SYS       45              0.0000000000
      1613        45  MOL       H29            -0.9887466849       -3.3502938218        7.8077538593  SYS       45              0.0000000000
      1614        45  MOL       C30             3.9490677525        0.7016944957       -2.0966635854  SYS       45              0.0000000000
      1615        45  MOL       C31             2.7711486890        0.3618746428       -4.1783079525  SYS       45              0.0000000000
      1616        45  MOL       H32             1.0069503655       -0.5978821010       -4.0706825617  SYS       45              0.0000000000
      1617        45  MOL       C33             3.8840664578        0.8599538215       -3.4392939232  SYS       45              0.0000000000
      1618        45  MOL       H34             4.6998326147        1.0228456225       -1.6120762528  SYS       45              0.0000000000
      1619        45  MOL       H35             2.7632654832        0.4838438990       -5.1208043748  SYS       45              0.0000000000
      1620        45  MOL       H36             4.5884785960        1.3050562921       -3.8953827313  SYS       45              0.0000000000
      1621        46  MOL       C1              3.2535723631      -10.4606048329       13.7194448523  SYS       46              0.0000000000
      1622        46  MOL       C2              4.3215276012      -10.3858736930       12.7912824734  SYS       46              0.0000000000
      1623        46  MOL       C3              2.0114930148       -9.7437481543       13.4427034720  SYS       46              0.0000000000
      1624        46  MOL       C4              3.3745124801      -11.2127521405       14.8954165535  SYS       46              0.0000000000
      1625        46  MOL       C5              4.1928222598       -9.6359099708       11.6358783674  SYS       46              0.0000000000
      1626        46  MOL       H6              5.1292549878      -10.8538540871       12.9682726686  SYS       46              0.0000000000
      1627        46  MOL       C7              1.9068845161       -8.9848639899       12.2598371259  SYS       46              0.0000000000
      1628        46  MOL       C8              0.9481082481       -9.8251194420       14.3493754813  SYS       46              0.0000000000
      1629        46  MOL       C9              2.3115138481      -11.2901395020       15.8028897886  SYS       46              0.0000000000
      1630        46  MOL       H10             4.1837298100      -11.6764386399       15.0757295088  SYS       46              0.0000000000
      1631        46  MOL       C11             5.2627789764       -9.5483733164       10.6910464127  SYS       46              0.0000000000
      1632        46  MOL       C12             2.9643254258       -8.9239871374       11.3631383762  SYS       46              0.0000000000
      1633        46  MOL       H13             1.1025272392       -8.5134881076       12.0769375397  SYS       46              0.0000000000
      1634        46  MOL       H14             0.1378319982       -9.3639680246       14.1673249982  SYS       46              0.0000000000
      1635        46  MOL       C15             1.0634605014      -10.5860843486       15.5202246481  SYS       46              0.0000000000
      1636        46  MOL       C16             2.4256080246      -12.0481876938       16.9854152049  SYS       46              0.0000000000
      1637        46  MOL       C17             5.1291001692       -8.8056649900        9.5669307184  SYS       46              0.0000000000
      1638        46  MOL       H18             6.0739050372      -10.0135249064       10.8579790266  SYS       46              0.0000000000
      1639        46  MOL       C19             2.8704151280       -8.1584591690       10.1621980430  SYS       46              0.0000000000
      1640        46  MOL       C20            -0.0094057210      -10.6896364237       16.4399167603  SYS       46              0.0000000000
      1641        46  MOL       C21             1.3660800227      -12.1248930870       17.8784284305  SYS       46              0.0000000000
      1642        46  MOL       H22             3.2351225352      -12.5104560781       17.1688063366  SYS       46              0.0000000000
      1643        46  MOL       C23             3.9165056719       -8.0945909111        9.3021688026  SYS       46              0.0000000000
      1644        46  MOL       H24             5.8453481823       -8.7464951107        8.9461162230  SYS       46              0.0000000000
      1645        46  MOL       H25             2.0713956880       -7.6798131072        9.9732465316  SYS       46              0.0000000000
      1646        46  MOL       H26            -0.8254607852      -10.2383557116       16.2578328012  SYS       46              0.0000000000
      1647        46  MOL       C27             0.1258032294      -11.4376687494       17.5958300300  SYS       46              0.0000000000
      1648        46  MOL       C28             1.4736568321      -12.8869181188       19.0804496345  SYS       46              0.0000000000
      1649        46  MOL       H29             3.8561186677       -7.5703381290        8.5120629036  SYS       46              0.0000000000
      1650        46  MOL       C30            -0.9469814508      -11.5557055209       18.5341145341  SYS       46              0.0000000000
      1651        46  MOL       C31             0.4262474514      -12.9726355520       19.9369664072  SYS       46              0.0000000000
      1652        46  MOL       H32             2.2832854026      -13.3458563622       19.2730997229  SYS       46              0.0000000000
      1653        46  MOL       C33            -0.8035141955      -12.2975424829       19.6575987755  SYS       46              0.0000000000
      1654        46  MOL       H34            -1.7684567212      -11.1110668120       18.3619727799  SYS       46              0.0000000000
      1655        46  MOL       H35             0.4982592114      -13.4896827098       20.7308375779  SYS       46              0.0000000000
      1656        46  MOL       H36            -1.5228169753      -12.3734150478       20.2730415375  SYS       46              0.0000000000
      1657        47  MOL       C1              4.8859405802        9.7413555785        3.2969483134  SYS       47              0.0000000000
      1658        47  MOL       C2              5.9435912927        9.7662944166        2.3544242767  SYS       47              0.0000000000
      1659        47  MOL       C3              3.6688132262       10.5004355260        3.0219409790  SYS       47              0.0000000000
      1660        47  MOL       C4              4.9893647152        8.9993245596        4.4809900956  SYS       47              0.0000000000
      1661        47  MOL       C5              5.8341073916       10.5162607867        1.1970423099  SYS       47              0.0000000000
      1662        47  MOL       H6              6.7327469976        9.2653653530        2.5248885144  SYS       47              0.0000000000
      1663        47  MOL       C7              3.5874803651       11.2712861239        1.8449978084  SYS       47              0.0000000000
      1664        47  MOL       C8              2.6047640291       10.4562703757        3.9304074486  SYS       47              0.0000000000
      1665        47  MOL       C9              3.9288900073        8.9595416835        5.3938281340  SYS       47              0.0000000000
      1666        47  MOL       H10             5.7843893057        8.5118747920        4.6617641068  SYS       47              0.0000000000
      1667        47  MOL       C11             6.8879969250       10.5453284623        0.2307869682  SYS       47              0.0000000000
      1668        47  MOL       C12             4.6424818012       11.2948894118        0.9436816758  SYS       47              0.0000000000
      1669        47  MOL       H13             2.8026616382       11.7773660116        1.6701240737  SYS       47              0.0000000000
      1670        47  MOL       H14             1.8097427757       10.9438571374        3.7499885866  SYS       47              0.0000000000
      1671        47  MOL       C15             2.7014103617        9.6958215267        5.1032836302  SYS       47              0.0000000000
      1672        47  MOL       C16             4.0165334445        8.2077086028        6.5825613040  SYS       47              0.0000000000
      1673        47  MOL       C17             6.7797352380       11.3034153866       -0.8857726577  SYS       47              0.0000000000
      1674        47  MOL       H18             7.6742112233       10.0343075000        0.3820570550  SYS       47              0.0000000000
      1675        47  MOL       C19             4.5780830424       12.0836279209       -0.2441121879  SYS       47              0.0000000000
      1676        47  MOL       C20             1.6213912074        9.6288565840        6.0179818686  SYS       47              0.0000000000
      1677        47  MOL       C21             2.9454774846        8.1502842385        7.4631846620  SYS       47              0.0000000000
      1678        47  MOL       H22             4.8121474146        7.7242391144        6.7720178253  SYS       47              0.0000000000
      1679        47  MOL       C23             5.6107025888       12.0929799082       -1.1225450466  SYS       47              0.0000000000
      1680        47  MOL       H24             7.4857303857       11.3218911982       -1.5207155089  SYS       47              0.0000000000
      1681        47  MOL       H25             3.8032728394       12.6066276045       -0.4155101803  SYS       47              0.0000000000
      1682        47  MOL       H26             0.8192972630       10.1025373660        5.8308280864  SYS       47              0.0000000000
      1683        47  MOL       C27             1.7263236898        8.8701222668        7.1700585664  SYS       47              0.0000000000
      1684        47  MOL       C28             3.0054023308        7.3669172499        8.6547613770  SYS       47              0.0000000000
      1685        47  MOL       H29             5.5653743909       12.6214575840       -1.9108416927  SYS       47              0.0000000000
      1686        47  MOL       C30             0.6318149646        8.7697005510        8.0850140787  SYS       47              0.0000000000
      1687        47  MOL       C31             1.9360152713        7.2884441510        9.4843927174  SYS       47              0.0000000000
      1688        47  MOL       H32             3.7980514751        6.8830997336        8.8569116558  SYS       47              0.0000000000
      1689        47  MOL       C33             0.7295186237        8.0001697878        9.1946978940  SYS       47              0.0000000000
      1690        47  MOL       H34            -0.1735711802        9.2390472105        7.9027371953  SYS       47              0.0000000000
      1691        47  MOL       H35             1.9773325160        6.7529663566       10.2681728587  SYS       47              0.0000000000
      1692        47  MOL       H36            -0.0052159187        7.9304142504        9.7923786161  SYS       47              0.0000000000
      1693        48  MOL       C1              3.0046611692       11.2993384723      -11.3101488709  SYS       48              0.0000000000
      1694        48  MOL       C2              4.0871501867       11.3802514897      -12.2207910323  SYS       48              0.0000000000
      1695        48  MOL       C3              1.7404187117       11.9548585234      -11.6345172851  SYS       48              0.0000000000
      1696        48  MOL       C4              3.1435322622       10.6005642408      -10.1036287015  SYS       48              0.0000000000
      1697        48  MOL       C5              3.9418904131       12.0619974439      -13.4158187934  SYS       48              0.0000000000
      1698        48  MOL       H6              4.9110900604       10.9564866186      -12.0103127010  SYS       48              0.0000000000
      1699        48  MOL       C7              1.6238350255       12.6485870208      -12.8556519712  SYS       48              0.0000000000
      1700        48  MOL       C8              0.6755856092       11.8793753327      -10.7290365662  SYS       48              0.0000000000
      1701        48  MOL       C9              2.0779124816       10.5332319329       -9.1984307060  SYS       48              0.0000000000
      1702        48  MOL       H10             3.9680402141       10.1769892736       -9.8959715251  SYS       48              0.0000000000
      1703        48  MOL       C11             5.0210143675       12.1330228719      -14.3515668063  SYS       48              0.0000000000
      1704        48  MOL       C12             2.6880388119       12.7023659196      -13.7447717874  SYS       48              0.0000000000
      1705        48  MOL       H13             0.8026378298       13.0734489243      -13.0742054862  SYS       48              0.0000000000
      1706        48  MOL       H14            -0.1478846125       12.3055180213      -10.9355548764  SYS       48              0.0000000000
      1707        48  MOL       C15             0.8119005895       11.1875943760       -9.5182026234  SYS       48              0.0000000000
      1708        48  MOL       C16             2.2189878408        9.8470829650       -7.9755986492  SYS       48              0.0000000000
      1709        48  MOL       C17             4.8631805472       12.7694171335      -15.5361395583  SYS       48              0.0000000000
      1710        48  MOL       H18             5.8506862692       11.7202995397      -14.1430914539  SYS       48              0.0000000000
      1711        48  MOL       C19             2.5765779207       13.3693926633      -15.0016574988  SYS       48              0.0000000000
      1712        48  MOL       C20            -0.2535287346       11.1106388246       -8.5873230700  SYS       48              0.0000000000
      1713        48  MOL       C21             1.1632540546        9.7926056760       -7.0764800125  SYS       48              0.0000000000
      1714        48  MOL       H22             3.0445919638        9.4263925091       -7.7657523209  SYS       48              0.0000000000
      1715        48  MOL       C23             3.6206772286       13.3966856921      -15.8660339219  SYS       48              0.0000000000
      1716        48  MOL       H24             5.5803676678       12.8027974007      -16.1577916479  SYS       48              0.0000000000
      1717        48  MOL       H25             1.7577601704       13.7923771038      -15.2337317247  SYS       48              0.0000000000
      1718        48  MOL       H26            -1.0804712306       11.5331141536       -8.7884086780  SYS       48              0.0000000000
      1719        48  MOL       C27            -0.0950921180       10.4303494424       -7.3931398753  SYS       48              0.0000000000
      1720        48  MOL       C28             1.3017169890        9.1205884727       -5.8249486354  SYS       48              0.0000000000
      1721        48  MOL       H29             3.5387952824       13.8387128330      -16.7030896281  SYS       48              0.0000000000
      1722        48  MOL       C30            -1.1574904869       10.3472785859       -6.4394174844  SYS       48              0.0000000000
      1723        48  MOL       C31             0.2683179144        9.0801109272       -4.9483171335  SYS       48              0.0000000000
      1724        48  MOL       H32             2.1278108554        8.7046897580       -5.6062388280  SYS       48              0.0000000000
      1725        48  MOL       C33            -0.9813590527        9.7010156203       -5.2627936407  SYS       48              0.0000000000
      1726        48  MOL       H34            -1.9924541144       10.7565521858       -6.6330378495  SYS       48              0.0000000000
      1727        48  MOL       H35             0.3640203652        8.6379883540       -4.1127792445  SYS       48              0.0000000000
      1728        48  MOL       H36            -1.6902263470        9.6577077514       -4.6322743972  SYS       48              0.0000000000
      1729        49  MOL       C1              3.0465632721        2.4904803349        2.6560057651  SYS       49              0.0000000000
      1730        49  MOL       C2              1.9514804650        2.4133819928        3.5518003992  SYS       49              0.0000000000
      1731        49  MOL       C3              4.3053662039        1.8372719900        3.0052398322  SYS       49              0.0000000000
      1732        49  MOL       C4              2.9326308621        3.1766201751        1.4396616316  SYS       49              0.0000000000
      1733        49  MOL       C5              2.0717030781        1.7202636541        4.7430614073  SYS       49              0.0000000000
      1734        49  MOL       H6              1.1323422415        2.8398675861        3.3284680929  SYS       49              0.0000000000
      1735        49  MOL       C7              4.4008454619        1.1330576854        4.2221978551  SYS       49              0.0000000000
      1736        49  MOL       C8              5.3958465693        1.9201186075        2.1314826629  SYS       49              0.0000000000
      1737        49  MOL       C9              4.0169483652        3.2409623154        0.5567243691  SYS       49              0.0000000000
      1738        49  MOL       H10             2.1103141601        3.5931346906        1.2101806558  SYS       49              0.0000000000
      1739        49  MOL       C11             0.9782919802        1.6341966492        5.6607880034  SYS       49              0.0000000000
      1740        49  MOL       C12             3.3171107380        1.0712791199        5.0868702630  SYS       49              0.0000000000
      1741        49  MOL       H13             5.2172092929        0.7055274055        4.4532953778  SYS       49              0.0000000000
      1742        49  MOL       H14             6.2155120830        1.4967671779        2.3579172494  SYS       49              0.0000000000
      1743        49  MOL       C15             5.2833808336        2.6083855060        0.9162042431  SYS       49              0.0000000000
      1744        49  MOL       C16             3.8987016910        3.8959535255       -0.6854612614  SYS       49              0.0000000000
      1745        49  MOL       C17             1.1107825261        0.9681460318        6.8320883943  SYS       49              0.0000000000
      1746        49  MOL       H18             0.1538290744        2.0545448070        5.4469508487  SYS       49              0.0000000000
      1747        49  MOL       C19             3.4073707495        0.3798757062        6.3322313944  SYS       49              0.0000000000
      1748        49  MOL       C20             6.3724763750        2.6788647878        0.0125991764  SYS       49              0.0000000000
      1749        49  MOL       C21             4.9673583151        3.9222701641       -1.5704676902  SYS       49              0.0000000000
      1750        49  MOL       H22             3.0732584936        4.3008551705       -0.9249112452  SYS       49              0.0000000000
      1751        49  MOL       C23             2.3443470339        0.3287621101        7.1721140378  SYS       49              0.0000000000
      1752        49  MOL       H24             0.3804222038        0.9196440162        7.4371869669  SYS       49              0.0000000000
      1753        49  MOL       H25             4.2217404456       -0.0477316052        6.5713773263  SYS       49              0.0000000000
      1754        49  MOL       H26             7.1960523484        2.2633246086        0.2402034214  SYS       49              0.0000000000
      1755        49  MOL       C27             6.2236676583        3.3019860839       -1.2135921314  SYS       49              0.0000000000
      1756        49  MOL       C28             4.8406951048        4.5283409755       -2.8564476651  SYS       49              0.0000000000
      1757        49  MOL       H29             2.4077977257       -0.1386840944        7.9968703395  SYS       49              0.0000000000
      1758        49  MOL       C30             7.2870135452        3.3156293017       -2.1697756110  SYS       49              0.0000000000
      1759        49  MOL       C31             5.8733719072        4.5034840620       -3.7345112302  SYS       49              0.0000000000
      1760        49  MOL       H32             4.0173195868        4.9347992755       -3.1015623392  SYS       49              0.0000000000
      1761        49  MOL       C33             7.1138114541        3.8813300755       -3.3876037765  SYS       49              0.0000000000
      1762        49  MOL       H34             8.1172253807        2.9105796330       -1.9487754634  SYS       49              0.0000000000
      1763        49  MOL       H35             5.7815204081        4.8927557033       -4.5963614399  SYS       49              0.0000000000
      1764        49  MOL       H36             7.8193643546        3.8724037429       -4.0232438898  SYS       49              0.0000000000
      1765        50  MOL       C1              0.5719457360        3.6788812602      -10.8722125925  SYS       50              0.0000000000
      1766        50  MOL       C2             -0.4837066453        3.6535598677       -9.9274610846  SYS       50              0.0000000000
      1767        50  MOL       C3              1.8014231460        2.9460969031      -10.5812782685  SYS       50              0.0000000000
      1768        50  MOL       C4              0.4557957200        4.3860577083      -12.0762359190  SYS       50              0.0000000000
      1769        50  MOL       C5             -0.3555078527        2.9362977114       -8.7514213888  SYS       50              0.0000000000
      1770        50  MOL       H6             -1.2865492132        4.1277136838      -10.1101539395  SYS       50              0.0000000000
      1771        50  MOL       C7              1.9091831512        2.2153367056       -9.3811123552  SYS       50              0.0000000000
      1772        50  MOL       C8              2.8579399961        2.9625526593      -11.4994089359  SYS       50              0.0000000000
      1773        50  MOL       C9              1.5095901113        4.4054664949      -12.9974325522  SYS       50              0.0000000000
      1774        50  MOL       H10            -0.3451503439        4.8601790359      -12.2660910944  SYS       50              0.0000000000
      1775        50  MOL       C11            -1.4135718043        2.8889291946       -7.7904664674  SYS       50              0.0000000000
      1776        50  MOL       C12             0.8575172054        2.1994157384       -8.4757388539  SYS       50              0.0000000000
      1777        50  MOL       H13             2.7029355480        1.7261048798       -9.1987734871  SYS       50              0.0000000000
      1778        50  MOL       H14             3.6579886111        2.4866569212      -11.3102104142  SYS       50              0.0000000000
      1779        50  MOL       C15             2.7407640942        3.6790628924      -12.6978013648  SYS       50              0.0000000000
      1780        50  MOL       C16             1.4147207669        5.1233723637      -14.2064122307  SYS       50              0.0000000000
      1781        50  MOL       C17            -1.2847671886        2.1604813266       -6.6564934301  SYS       50              0.0000000000
      1782        50  MOL       H18            -2.2178867666        3.3661505181       -7.9562833402  SYS       50              0.0000000000
      1783        50  MOL       C19             0.9472612966        1.4441503691       -7.2680012512  SYS       50              0.0000000000
      1784        50  MOL       C20             3.8144529639        3.7117008031      -13.6217740557  SYS       50              0.0000000000
      1785        50  MOL       C21             2.4822288241        5.1571303057      -15.0925515333  SYS       50              0.0000000000
      1786        50  MOL       H22             0.6177251262        5.6009725681      -14.4047404999  SYS       50              0.0000000000
      1787        50  MOL       C23            -0.0876041912        1.4234799471       -6.3924094344  SYS       50              0.0000000000
      1788        50  MOL       H24            -1.9940273814        2.1321042776       -6.0255674038  SYS       50              0.0000000000
      1789        50  MOL       H25             1.7363061129        0.9454678999       -7.0892252348  SYS       50              0.0000000000
      1790        50  MOL       H26             4.6184010710        3.2450550716      -13.4251426630  SYS       50              0.0000000000
      1791        50  MOL       C27             3.7024656008        4.4426063658      -14.7910495603  SYS       50              0.0000000000
      1792        50  MOL       C28             2.4152363461        5.9066487155      -16.3053351267  SYS       50              0.0000000000
      1793        50  MOL       H29            -0.0275637879        0.9183669357       -5.5899065391  SYS       50              0.0000000000
      1794        50  MOL       C30             4.7937771371        4.5181275679      -15.7121972946  SYS       50              0.0000000000
      1795        50  MOL       C31             3.4775788866        5.9549735838      -17.1462440930  SYS       50              0.0000000000
      1796        50  MOL       H32             1.6222485929        6.3872639451      -16.5137007207  SYS       50              0.0000000000
      1797        50  MOL       C33             4.6860566079        5.2513168142      -16.8453131758  SYS       50              0.0000000000
      1798        50  MOL       H34             5.6025591543        4.0584265227      -15.5206129125  SYS       50              0.0000000000
      1799        50  MOL       H35             3.4298376790        6.4636357778      -17.9473298920  SYS       50              0.0000000000
      1800        50  MOL       H36             5.4163449271        5.3028360883      -17.4502492652  SYS       50              0.0000000000
      1801        51  MOL       C1              3.7480998221        4.6385676655       16.4937242847  SYS       51              0.0000000000
      1802        51  MOL       C2              4.8280752165        4.7291133906       15.5810068287  SYS       51              0.0000000000
      1803        51  MOL       C3              2.4941890209        5.3224740892       16.1884209878  SYS       51              0.0000000000
      1804        51  MOL       C4              3.8743012343        3.9009869900       17.6783379247  SYS       51              0.0000000000
      1805        51  MOL       C5              4.6959120405        5.4615614533       14.4148070054  SYS       51              0.0000000000
      1806        51  MOL       H6              5.6463707870        4.2879720686       15.7773264729  SYS       51              0.0000000000
      1807        51  MOL       C7              2.3841179473        6.0583541049       14.9915977483  SYS       51              0.0000000000
      1808        51  MOL       C8              1.4269990309        5.2388650856       17.0904063756  SYS       51              0.0000000000
      1809        51  MOL       C9              2.8054326818        3.8162899170       18.5782318022  SYS       51              0.0000000000
      1810        51  MOL       H10             4.6907427585        3.4554687513       17.8714372635  SYS       51              0.0000000000
      1811        51  MOL       C11             5.7857456909        5.5737313183       13.4956454314  SYS       51              0.0000000000
      1812        51  MOL       C12             3.4534942258        6.1354932717       14.1104395106  SYS       51              0.0000000000
      1813        51  MOL       H13             1.5709238893        6.5070237538       14.7914750855  SYS       51              0.0000000000
      1814        51  MOL       H14             0.6111013311        5.6857824878       16.8982439752  SYS       51              0.0000000000
      1815        51  MOL       C15             1.5537661075        4.5066453618       18.2782809007  SYS       51              0.0000000000
      1816        51  MOL       C16             2.9176619125        3.0715081594       19.7693344995  SYS       51              0.0000000000
      1817        51  MOL       C17             5.6578831668        6.3053072623       12.3635811275  SYS       51              0.0000000000
      1818        51  MOL       H18             6.6069776499        5.1367537736       13.6874439731  SYS       51              0.0000000000
      1819        51  MOL       C19             3.3653334020        6.8833010390       12.8979540013  SYS       51              0.0000000000
      1820        51  MOL       C20             0.4835889771        4.4294914813       19.2036817503  SYS       51              0.0000000000
      1821        51  MOL       C21             1.8538622412        3.0021741869       20.6578607987  SYS       51              0.0000000000
      1822        51  MOL       H22             3.7267381691        2.6115570849       19.9603285547  SYS       51              0.0000000000
      1823        51  MOL       C23             4.4277593123        6.9692670493       12.0601617211  SYS       51              0.0000000000
      1824        51  MOL       H24             6.3879310195        6.3825433996       11.7610965712  SYS       51              0.0000000000
      1825        51  MOL       H25             2.5566246604        7.3353490444       12.6861060288  SYS       51              0.0000000000
      1826        51  MOL       H26            -0.3300155285        4.8835272520       19.0175260517  SYS       51              0.0000000000
      1827        51  MOL       C27             0.6215408796        3.7024928057       20.3726178072  SYS       51              0.0000000000
      1828        51  MOL       C28             1.9456864338        2.2369100991       21.8591305797  SYS       51              0.0000000000
      1829        51  MOL       H29             4.3669873563        7.4799663648       11.2612575466  SYS       51              0.0000000000
      1830        51  MOL       C30            -0.4475320565        3.6227493972       21.3191385442  SYS       51              0.0000000000
      1831        51  MOL       C31             0.8965482228        2.1729644814       22.7154335875  SYS       51              0.0000000000
      1832        51  MOL       H32             2.7455062560        1.7607438170       22.0509396525  SYS       51              0.0000000000
      1833        51  MOL       C33            -0.3158209239        2.8822691210       22.4449550960  SYS       51              0.0000000000
      1834        51  MOL       H34            -1.2596985802        4.0846519680       21.1482890669  SYS       51              0.0000000000
      1835        51  MOL       H35             0.9562915496        1.6515729959       23.5074793856  SYS       51              0.0000000000
      1836        51  MOL       H36            -1.0333497207        2.8241463644       23.0643879812  SYS       51              0.0000000000
      1837        52  MOL       C1              3.8765816418       -2.6010612372       14.3643329474  SYS       52              0.0000000000
      1838        52  MOL       C2              4.9452971446       -2.5367208099       13.4362672068  SYS       52              0.0000000000
      1839        52  MOL       C3              2.6483916118       -1.8608640619       14.0870464733  SYS       52              0.0000000000
      1840        52  MOL       C4              3.9824849002       -3.3558830747       15.5400412529  SYS       52              0.0000000000
      1841        52  MOL       C5              4.8339860138       -1.7672078663       12.2919643799  SYS       52              0.0000000000
      1842        52  MOL       H6              5.7430676390       -3.0233694142       13.6079939769  SYS       52              0.0000000000
      1843        52  MOL       C7              2.5628151747       -1.0736993691       12.9212551861  SYS       52              0.0000000000
      1844        52  MOL       C8              1.5764992724       -1.9349827898       14.9842732046  SYS       52              0.0000000000
      1845        52  MOL       C9              2.9179431149       -3.4151105744       16.4470723761  SYS       52              0.0000000000
      1846        52  MOL       H10             4.7867984681       -3.8258993618       15.7258233646  SYS       52              0.0000000000
      1847        52  MOL       C11             5.9014703486       -1.6963822677       11.3429446786  SYS       52              0.0000000000
      1848        52  MOL       C12             3.6284269464       -1.0117672979       12.0343550301  SYS       52              0.0000000000
      1849        52  MOL       H13             1.7686043066       -0.5830710011       12.7447586944  SYS       52              0.0000000000
      1850        52  MOL       H14             0.7755508879       -1.4571917191       14.8038625967  SYS       52              0.0000000000
      1851        52  MOL       C15             1.6788923774       -2.6994988317       16.1540135077  SYS       52              0.0000000000
      1852        52  MOL       C16             3.0201165657       -4.1492543808       17.6456608626  SYS       52              0.0000000000
      1853        52  MOL       C17             5.7922472730       -0.9199675300       10.2391456704  SYS       52              0.0000000000
      1854        52  MOL       H18             6.6973229465       -2.1916742673       11.4961192961  SYS       52              0.0000000000
      1855        52  MOL       C19             3.5594574487       -0.2104494518       10.8552694454  SYS       52              0.0000000000
      1856        52  MOL       C20             0.5997863743       -2.7747247089       17.0691472935  SYS       52              0.0000000000
      1857        52  MOL       C21             1.9499450813       -4.2145787609       18.5268087758  SYS       52              0.0000000000
      1858        52  MOL       H22             3.8282838360       -4.6072623189       17.8449909930  SYS       52              0.0000000000
      1859        52  MOL       C23             4.6041993874       -0.1624352455        9.9925737909  SYS       52              0.0000000000
      1860        52  MOL       H24             6.5083657899       -0.8712134321        9.6172773271  SYS       52              0.0000000000
      1861        52  MOL       H25             2.7740987086        0.2936920758       10.6755759256  SYS       52              0.0000000000
      1862        52  MOL       H26            -0.2063963518       -2.3074535114       16.8834546518  SYS       52              0.0000000000
      1863        52  MOL       C27             0.7176626981       -3.5193873175       18.2291266376  SYS       52              0.0000000000
      1864        52  MOL       C28             2.0366092335       -4.9609777918       19.7402698197  SYS       52              0.0000000000
      1865        52  MOL       H29             4.5587621259        0.3778902759        9.2123567135  SYS       52              0.0000000000
      1866        52  MOL       C30            -0.3620235128       -3.6055883918       19.1629491694  SYS       52              0.0000000000
      1867        52  MOL       C31             0.9828602784       -5.0224793015       20.5910727199  SYS       52              0.0000000000
      1868        52  MOL       H32             2.8414812169       -5.4217267950       19.9479432089  SYS       52              0.0000000000
      1869        52  MOL       C33            -0.2350090848       -4.3315006506       20.2987486669  SYS       52              0.0000000000
      1870        52  MOL       H34            -1.1751617139       -3.1489372818       18.9828546913  SYS       52              0.0000000000
      1871        52  MOL       H35             1.0436640855       -5.5280794401       21.3932112924  SYS       52              0.0000000000
      1872        52  MOL       H36            -0.9584887311       -4.3866265932       20.9114976044  SYS       52              0.0000000000
      1873        53  MOL       C1              2.2358811420       -4.0868432028      -13.5094310367  SYS       53              0.0000000000
      1874        53  MOL       C2              3.3145504529       -4.0223392324      -14.4258972340  SYS       53              0.0000000000
      1875        53  MOL       C3              1.0066181141       -3.3517476246      -13.7953983353  SYS       53              0.0000000000
      1876        53  MOL       C4              2.3399511678       -4.8375122274      -12.3309035777  SYS       53              0.0000000000
      1877        53  MOL       C5              3.2043727118       -3.2734912399      -15.5839373228  SYS       53              0.0000000000
      1878        53  MOL       H6              4.1161156329       -4.4974453954      -14.2400959805  SYS       53              0.0000000000
      1879        53  MOL       C7              0.9213760455       -2.5945284963      -14.9808829987  SYS       53              0.0000000000
      1880        53  MOL       C8             -0.0594484365       -3.4091079839      -12.8900395779  SYS       53              0.0000000000
      1881        53  MOL       C9              1.2788901272       -4.8785937891      -11.4188047117  SYS       53              0.0000000000
      1882        53  MOL       H10             3.1439819232       -5.3068136194      -12.1421143661  SYS       53              0.0000000000
      1883        53  MOL       C11             4.2843447530       -3.1992057703      -16.5184529853  SYS       53              0.0000000000
      1884        53  MOL       C12             1.9860063672       -2.5494814430      -15.8699774580  SYS       53              0.0000000000
      1885        53  MOL       H13             0.1257899011       -2.1105192506      -15.1690739844  SYS       53              0.0000000000
      1886        53  MOL       H14            -0.8588630114       -2.9299461207      -13.0735902680  SYS       53              0.0000000000
      1887        53  MOL       C15             0.0433952261       -4.1556075708      -11.7087593187  SYS       53              0.0000000000
      1888        53  MOL       C16             1.3983102536       -5.5873743382      -10.2066207863  SYS       53              0.0000000000
      1889        53  MOL       C17             4.1737820163       -2.4510481614      -17.6414658301  SYS       53              0.0000000000
      1890        53  MOL       H18             5.0887131097       -3.6728778572      -16.3429984709  SYS       53              0.0000000000
      1891        53  MOL       C19             1.9130436016       -1.7869965492      -17.0743042907  SYS       53              0.0000000000
      1892        53  MOL       C20            -1.0200370264       -4.2068879832      -10.7738364832  SYS       53              0.0000000000
      1893        53  MOL       C21             0.3581050915       -5.5904836916       -9.2879698852  SYS       53              0.0000000000
      1894        53  MOL       H22             2.2080522453       -6.0430987860      -10.0084510515  SYS       53              0.0000000000
      1895        53  MOL       C23             2.9695321811       -1.7319435158      -17.9221462099  SYS       53              0.0000000000
      1896        53  MOL       H24             4.8988300711       -2.3974114370      -18.2524906647  SYS       53              0.0000000000
      1897        53  MOL       H25             1.1200835218       -1.3016234304      -17.2714439338  SYS       53              0.0000000000
      1898        53  MOL       H26            -1.8258601792       -3.7381926688      -10.9574895957  SYS       53              0.0000000000
      1899        53  MOL       C27            -0.8764926021       -4.8989320611       -9.5845344610  SYS       53              0.0000000000
      1900        53  MOL       C28             0.4953514194       -6.2472609618       -8.0282409634  SYS       53              0.0000000000
      1901        53  MOL       H29             2.9207958605       -1.2090434482      -18.7139512314  SYS       53              0.0000000000
      1902        53  MOL       C30            -1.9194561294       -4.9202752328       -8.6062967547  SYS       53              0.0000000000
      1903        53  MOL       C31            -0.5122012253       -6.2152203162       -7.1216837748  SYS       53              0.0000000000
      1904        53  MOL       H32             1.3057032592       -6.6998536810       -7.8239702692  SYS       53              0.0000000000
      1905        53  MOL       C33            -1.7399396853       -5.5436293456       -7.4178838346  SYS       53              0.0000000000
      1906        53  MOL       H34            -2.7382230477       -4.4736331164       -8.7859896536  SYS       53              0.0000000000
      1907        53  MOL       H35            -0.4151982215       -6.6423264115       -6.2785196784  SYS       53              0.0000000000
      1908        53  MOL       H36            -2.4318632184       -5.5383109103       -6.7673944286  SYS       53              0.0000000000
      1909        54  MOL       C1              2.5398756199       -5.2321830818        2.0531792542  SYS       54              0.0000000000
      1910        54  MOL       C2              1.4796220738       -5.2749030376        2.9921339700  SYS       54              0.0000000000
      1911        54  MOL       C3              3.7601385961       -5.9899234075        2.3177888995  SYS       54              0.0000000000
      1912        54  MOL       C4              2.4303163427       -4.4797944640        0.8762469462  SYS       54              0.0000000000
      1913        54  MOL       C5              1.5912943635       -6.0409849193        4.1387015204  SYS       54              0.0000000000
      1914        54  MOL       H6              0.6838393368       -4.7846203784        2.8215248874  SYS       54              0.0000000000
      1915        54  MOL       C7              3.8587845015       -6.7440740205        3.5041896509  SYS       54              0.0000000000
      1916        54  MOL       C8              4.8120625705       -5.9564743952        1.3948589538  SYS       54              0.0000000000
      1917        54  MOL       C9              3.4795483286       -4.4523020460       -0.0499382212  SYS       54              0.0000000000
      1918        54  MOL       H10             1.6351416539       -3.9898532281        0.7030262265  SYS       54              0.0000000000
      1919        54  MOL       C11             0.5168604001       -6.1232992436        5.0789107916  SYS       54              0.0000000000
      1920        54  MOL       C12             2.8051191926       -6.7793884150        4.4066852055  SYS       54              0.0000000000
      1921        54  MOL       H13             4.6518272981       -7.2365149936        3.6808903032  SYS       54              0.0000000000
      1922        54  MOL       H14             5.6074584110       -6.4460167436        1.5681920626  SYS       54              0.0000000000
      1923        54  MOL       C15             4.7052700542       -5.1989166554        0.2209922027  SYS       54              0.0000000000
      1924        54  MOL       C16             3.3694486484       -3.7151346990       -1.2459663373  SYS       54              0.0000000000
      1925        54  MOL       C17             0.6333184549       -6.8828382783        6.1936572879  SYS       54              0.0000000000
      1926        54  MOL       H18            -0.2864552526       -5.6444335735        4.9129902752  SYS       54              0.0000000000
      1927        54  MOL       C19             2.8879428620       -7.5484015156        5.6062138581  SYS       54              0.0000000000
      1928        54  MOL       C20             5.7698737363       -5.1451827876       -0.7124585070  SYS       54              0.0000000000
      1929        54  MOL       C21             4.4126649142       -3.7015274584       -2.1611005242  SYS       54              0.0000000000
      1930        54  MOL       H22             2.5709841568       -3.2334366337       -1.4277891587  SYS       54              0.0000000000
      1931        54  MOL       C23             1.8382487861       -7.6053823231        6.4623274069  SYS       54              0.0000000000
      1932        54  MOL       H24            -0.0872655812       -6.9401258601        6.8096115950  SYS       54              0.0000000000
      1933        54  MOL       H25             3.6813442600       -8.0364168271        5.7948724618  SYS       54              0.0000000000
      1934        54  MOL       H26             6.5720195507       -5.6230094500       -0.5363946677  SYS       54              0.0000000000
      1935        54  MOL       C27             5.6381911495       -4.4154876794       -1.8804371295  SYS       54              0.0000000000
      1936        54  MOL       C28             4.3012680092       -2.9858254361       -3.3909262142  SYS       54              0.0000000000
      1937        54  MOL       H29             1.8895688386       -8.1345424818        7.2497984731  SYS       54              0.0000000000
      1938        54  MOL       C30             6.6990211838       -4.3592040436       -2.8378551471  SYS       54              0.0000000000
      1939        54  MOL       C31             5.3344968318       -2.9612275779       -4.2683474364  SYS       54              0.0000000000
      1940        54  MOL       H32             3.4982324904       -2.5166692878       -3.5865361846  SYS       54              0.0000000000
      1941        54  MOL       C33             6.5524915473       -3.6559083909       -3.9854727117  SYS       54              0.0000000000
      1942        54  MOL       H34             7.5102831202       -4.8220524050       -2.6652763463  SYS       54              0.0000000000
      1943        54  MOL       H35             5.2597158075       -2.4804281093       -5.0844323444  SYS       54              0.0000000000
      1944        54  MOL       H36             7.2610014137       -3.6261261547       -4.6171765381  SYS       54              0.0000000000
