* EXECUTING CHARMM SCRIPT FROM PYTHON
*  DATE:    11/14/25     13:30:31      CREATED BY USER: takahashi
*
      1944  EXT
         1         1  MOL       C1             -9.7000836574        9.0723679076        4.7336824191  SYS       1               0.0000000000
         2         1  MOL       C2            -10.8003643401        9.0096494068        5.6242144622  SYS       1               0.0000000000
         3         1  MOL       C3             -8.4658164986        8.3731175425        5.0813372825  SYS       1               0.0000000000
         4         1  MOL       C4             -9.8043897852        9.7704156850        3.5232647273  SYS       1               0.0000000000
         5         1  MOL       C5            -10.7118385266        8.3021998581        6.8098145590  SYS       1               0.0000000000
         6         1  MOL       H6            -11.5995651835        9.4652797712        5.3866567265  SYS       1               0.0000000000
         7         1  MOL       C7             -8.4022878615        7.6362971572        6.2809541744  SYS       1               0.0000000000
         8         1  MOL       C8             -7.3824612929        8.4076549707        4.1955544668  SYS       1               0.0000000000
         9         1  MOL       C9             -8.7110240594        9.8114510978        2.6501495972  SYS       1               0.0000000000
        10         1  MOL       H10           -10.6025791991       10.2198114236        3.2716942305  SYS       1               0.0000000000
        11         1  MOL       C11           -11.8307113884        8.2197205185        7.6966618339  SYS       1               0.0000000000
        12         1  MOL       C12            -9.4929337913        7.5973329232        7.1382342524  SYS       1               0.0000000000
        13         1  MOL       H13            -7.5994496180        7.1778024339        6.4997495957  SYS       1               0.0000000000
        14         1  MOL       H14            -6.5752008601        7.9655193766        4.4304955342  SYS       1               0.0000000000
        15         1  MOL       C15            -7.4675866628        9.1281551866        2.9968490855  SYS       1               0.0000000000
        16         1  MOL       C16            -8.7863356325       10.5322591692        1.4415203120  SYS       1               0.0000000000
        17         1  MOL       C17           -11.7359152640        7.4967800291        8.8374915588  SYS       1               0.0000000000
        18         1  MOL       H18           -12.6435883196        8.6573283687        7.4733046465  SYS       1               0.0000000000
        19         1  MOL       C19            -9.4555384709        6.8472319732        8.3519310838  SYS       1               0.0000000000
        20         1  MOL       C20            -6.3754711527        9.2028454184        2.0972360675  SYS       1               0.0000000000
        21         1  MOL       C21            -7.7066337323       10.5833074271        0.5711216911  SYS       1               0.0000000000
        22         1  MOL       H22            -9.6043322223       10.9605377263        1.2176963849  SYS       1               0.0000000000
        23         1  MOL       C23           -10.5388079105        6.7855026513        9.1647973875  SYS       1               0.0000000000
        24         1  MOL       H24           -12.4756604630        7.4786156906        9.4327814259  SYS       1               0.0000000000
        25         1  MOL       H25            -8.6674297970        6.3598400624        8.5630486296  SYS       1               0.0000000000
        26         1  MOL       H26            -5.5747137955        8.7426305486        2.3202710747  SYS       1               0.0000000000
        27         1  MOL       C27            -6.4742869544        9.9078584217        0.9109977422  SYS       1               0.0000000000
        28         1  MOL       C28            -7.7602112486       11.3132721323       -0.6541908510  SYS       1               0.0000000000
        29         1  MOL       H29           -10.5141132863        6.2749380872        9.9657149146  SYS       1               0.0000000000
        30         1  MOL       C30            -5.3610149539        9.9892031799        0.0170257648  SYS       1               0.0000000000
        31         1  MOL       C31            -6.6754140555       11.3731278607       -1.4651576556  SYS       1               0.0000000000
        32         1  MOL       H32            -8.5662084466       11.7601286993       -0.8864073461  SYS       1               0.0000000000
        33         1  MOL       C33            -5.4657698259       10.6815390184       -1.1417750042  SYS       1               0.0000000000
        34         1  MOL       H34            -4.5526292451        9.5322216072        0.2166212501  SYS       1               0.0000000000
        35         1  MOL       H35            -6.7345994681       11.8953920648       -2.2566701828  SYS       1               0.0000000000
        36         1  MOL       H36            -4.7099069072       10.7645083678       -1.7107304186  SYS       1               0.0000000000
        37         2  MOL       C1             -8.7339196797        4.0640816848       16.1208291526  SYS       2               0.0000000000
        38         2  MOL       C2             -7.6780895845        4.1067428496       15.1769004828  SYS       2               0.0000000000
        39         2  MOL       C3             -9.9661515335        4.8043346887       15.8622551115  SYS       2               0.0000000000
        40         2  MOL       C4             -8.6035285910        3.2989046037       17.2873469154  SYS       2               0.0000000000
        41         2  MOL       C5             -7.8068557848        4.8612460690       14.0244624457  SYS       2               0.0000000000
        42         2  MOL       H6             -6.8746639569        3.6324755070       15.3567127246  SYS       2               0.0000000000
        43         2  MOL       C7            -10.0696939516        5.5656267850       14.6808431750  SYS       2               0.0000000000
        44         2  MOL       C8            -11.0158262246        4.7331873962       16.7856096670  SYS       2               0.0000000000
        45         2  MOL       C9             -9.6563021554        3.2302542771       18.2073564196  SYS       2               0.0000000000
        46         2  MOL       H10            -7.8214438295        2.7849534965       17.4502833468  SYS       2               0.0000000000
        47         2  MOL       C11            -6.7471492055        4.9634657144       13.0696061644  SYS       2               0.0000000000
        48         2  MOL       C12            -9.0161048160        5.6148011513       13.7789076446  SYS       2               0.0000000000
        49         2  MOL       H13           -10.8633189246        6.0664250196       14.5325238489  SYS       2               0.0000000000
        50         2  MOL       H14           -11.8207380271        5.2057348490       16.6090693344  SYS       2               0.0000000000
        51         2  MOL       C15           -10.8988121894        3.9506567866       17.9419898123  SYS       2               0.0000000000
        52         2  MOL       C16            -9.5580292473        2.4673770115       19.3881957686  SYS       2               0.0000000000
        53         2  MOL       C17            -6.8505558281        5.7477589913       11.9708282792  SYS       2               0.0000000000
        54         2  MOL       H18            -5.9499589062        4.4643538836       13.2020183063  SYS       2               0.0000000000
        55         2  MOL       C19            -9.1037209760        6.4073902260       12.5951695790  SYS       2               0.0000000000
        56         2  MOL       C20           -11.9799904298        3.8357321904       18.8505295454  SYS       2               0.0000000000
        57         2  MOL       C21           -10.6148075650        2.3807421172       20.2835559511  SYS       2               0.0000000000
        58         2  MOL       H22            -8.7318805843        2.0273085000       19.5508493420  SYS       2               0.0000000000
        59         2  MOL       C23            -8.0530981954        6.4878113257       11.7420816391  SYS       2               0.0000000000
        60         2  MOL       H24            -6.1433231007        5.8179146928       11.3408894128  SYS       2               0.0000000000
        61         2  MOL       H25            -9.8777664288        6.9314775058       12.4236384353  SYS       2               0.0000000000
        62         2  MOL       H26           -12.7871976280        4.2996822464       18.6609996351  SYS       2               0.0000000000
        63         2  MOL       C27           -11.8491438574        3.0786002692       20.0010075706  SYS       2               0.0000000000
        64         2  MOL       C28           -10.5116057633        1.6199952786       21.4867697640  SYS       2               0.0000000000
        65         2  MOL       H29            -8.1064300529        7.0417361531       10.9719661338  SYS       2               0.0000000000
        66         2  MOL       C30           -12.9294347088        2.9614973816       20.9307580754  SYS       2               0.0000000000
        67         2  MOL       C31           -11.5694377933        1.5180251618       22.3285703974  SYS       2               0.0000000000
        68         2  MOL       H32            -9.7000834596        1.1680717639       21.6878504980  SYS       2               0.0000000000
        69         2  MOL       C33           -12.7889120985        2.2115291999       22.0492046942  SYS       2               0.0000000000
        70         2  MOL       H34           -13.7483302401        3.4113185103       20.7597930785  SYS       2               0.0000000000
        71         2  MOL       H35           -11.5246889352        1.0144101277       23.1330107804  SYS       2               0.0000000000
        72         2  MOL       H36           -13.5182748219        2.1245558742       22.6511918924  SYS       2               0.0000000000
        73         3  MOL       C1              6.8636550374        4.0311036352      -10.8461279632  SYS       3               0.0000000000
        74         3  MOL       C2              5.7918370374        3.9343518336       -9.9244752287  SYS       3               0.0000000000
        75         3  MOL       C3              8.0932462869        3.2884720851      -10.5818664895  SYS       3               0.0000000000
        76         3  MOL       C4              6.7421288630        4.7798720643      -12.0241936324  SYS       3               0.0000000000
        77         3  MOL       C5              5.9202103134        3.1898599756       -8.7655009204  SYS       3               0.0000000000
        78         3  MOL       H6              4.9918623033        4.4164195543      -10.0988479085  SYS       3               0.0000000000
        79         3  MOL       C7              8.2120111042        2.5456411715       -9.3901794481  SYS       3               0.0000000000
        80         3  MOL       C8              9.1481176450        3.3532829340      -11.4997491084  SYS       3               0.0000000000
        81         3  MOL       C9              7.7984977206        4.8396486864      -12.9406946558  SYS       3               0.0000000000
        82         3  MOL       H10             5.9334881979        5.2461509148      -12.2003608942  SYS       3               0.0000000000
        83         3  MOL       C11             4.8498258977        3.1230164001       -7.8194636336  SYS       3               0.0000000000
        84         3  MOL       C12             7.1534585123        2.4854329440       -8.4947481183  SYS       3               0.0000000000
        85         3  MOL       H13             9.0226059495        2.0826042311       -9.2136266773  SYS       3               0.0000000000
        86         3  MOL       H14             9.9504221945        2.8728904926      -11.3327727424  SYS       3               0.0000000000
        87         3  MOL       C15             9.0309855109        4.1009300642      -12.6789714421  SYS       3               0.0000000000
        88         3  MOL       C16             7.6922776009        5.6079695224      -14.1173089662  SYS       3               0.0000000000
        89         3  MOL       C17             4.9994567342        2.3898904060       -6.6910760202  SYS       3               0.0000000000
        90         3  MOL       H18             4.0307493975        3.5741752147       -7.9859790359  SYS       3               0.0000000000
        91         3  MOL       C19             7.2526013521        1.7274023358       -7.2894804566  SYS       3               0.0000000000
        92         3  MOL       C20            10.0880266234        4.1576130454      -13.6208045615  SYS       3               0.0000000000
        93         3  MOL       C21             8.7328574834        5.6350678528      -15.0351406850  SYS       3               0.0000000000
        94         3  MOL       H22             6.8981866502        6.1058809985      -14.2726853382  SYS       3               0.0000000000
        95         3  MOL       C23             6.2124083571        1.6813529351       -6.4211989349  SYS       3               0.0000000000
        96         3  MOL       H24             4.2800814659        2.2922280200       -6.0787981336  SYS       3               0.0000000000
        97         3  MOL       H25             8.0520121643        1.2513270461       -7.0957501140  SYS       3               0.0000000000
        98         3  MOL       H26            10.8836083895        3.6727706416      -13.4344388413  SYS       3               0.0000000000
        99         3  MOL       C27             9.9574882166        4.9127052647      -14.7726572973  SYS       3               0.0000000000
       100         3  MOL       C28             8.6498364597        6.4030409196      -16.2353218062  SYS       3               0.0000000000
       101         3  MOL       H29             6.2702455840        1.1894679177       -5.6103605554  SYS       3               0.0000000000
       102         3  MOL       C30            11.0326200692        4.9849885192      -15.7128934606  SYS       3               0.0000000000
       103         3  MOL       C31             9.6901924543        6.4520628435      -17.1032452310  SYS       3               0.0000000000
       104         3  MOL       H32             7.8515344028        6.8832460852      -16.4233473353  SYS       3               0.0000000000
       105         3  MOL       C33            10.8967892249        5.7327454269      -16.8333983945  SYS       3               0.0000000000
       106         3  MOL       H34            11.8474850534        4.5259931243      -15.5471338323  SYS       3               0.0000000000
       107         3  MOL       H35             9.6375500428        6.9513035602      -17.9099312766  SYS       3               0.0000000000
       108         3  MOL       H36            11.6007914605        5.7859433321      -17.4685942413  SYS       3               0.0000000000
       109         4  MOL       C1              7.5830261627       -2.6367671813       17.1072484785  SYS       4               0.0000000000
       110         4  MOL       C2              6.5243389848       -2.7639963952       18.0403040489  SYS       4               0.0000000000
       111         4  MOL       C3              8.8470234499       -3.3176564811       17.3754480615  SYS       4               0.0000000000
       112         4  MOL       C4              7.4221581831       -1.9016931074       15.9252801813  SYS       4               0.0000000000
       113         4  MOL       C5              6.6944062067       -3.4971321307       19.2011478826  SYS       4               0.0000000000
       114         4  MOL       H6              5.6995602951       -2.3165415072       17.8910427658  SYS       4               0.0000000000
       115         4  MOL       C7              9.0024636686       -4.0485890517       18.5702688728  SYS       4               0.0000000000
       116         4  MOL       C8              9.8921735871       -3.2381632853       16.4476525263  SYS       4               0.0000000000
       117         4  MOL       C9              8.4679863661       -1.8252288088       14.9979942660  SYS       4               0.0000000000
       118         4  MOL       H10             6.6053686878       -1.4486802925       15.7521187089  SYS       4               0.0000000000
       119         4  MOL       C11             5.6477240891       -3.6346922240       20.1658816163  SYS       4               0.0000000000
       120         4  MOL       C12             7.9541925944       -4.1521333678       19.4737965247  SYS       4               0.0000000000
       121         4  MOL       H13             9.8327865619       -4.4758502800       18.7453397977  SYS       4               0.0000000000
       122         4  MOL       H14            10.7233427934       -3.6505469068       16.6512405771  SYS       4               0.0000000000
       123         4  MOL       C15             9.7338840943       -2.5028613635       15.2654778348  SYS       4               0.0000000000
       124         4  MOL       C16             8.3176395004       -1.0886686117       13.8059809463  SYS       4               0.0000000000
       125         4  MOL       C17             5.8277126087       -4.3409682042       21.3068899819  SYS       4               0.0000000000
       126         4  MOL       H18             4.8389722361       -3.1666809568       19.9954590127  SYS       4               0.0000000000
       127         4  MOL       C19             8.1052338967       -4.8909639196       20.6855827207  SYS       4               0.0000000000
       128         4  MOL       C20            10.7924299556       -2.4048102536       14.3287467419  SYS       4               0.0000000000
       129         4  MOL       C21             9.3681870854       -0.9967274201       12.9038432259  SYS       4               0.0000000000
       130         4  MOL       H22             7.4870516759       -0.6699119312       13.6125777353  SYS       4               0.0000000000
       131         4  MOL       C23             7.0737939749       -4.9965488952       21.5590919173  SYS       4               0.0000000000
       132         4  MOL       H24             5.1106855328       -4.3866259100       21.9279459172  SYS       4               0.0000000000
       133         4  MOL       H25             8.9268956515       -5.3389927497       20.8510484352  SYS       4               0.0000000000
       134         4  MOL       H26            11.6152007416       -2.8446072159       14.5086954902  SYS       4               0.0000000000
       135         4  MOL       C27            10.6215103868       -1.6659698036       13.1716510012  SYS       4               0.0000000000
       136         4  MOL       C28             9.2482228377       -0.2658222549       11.6838038550  SYS       4               0.0000000000
       137         4  MOL       H29             7.1609797383       -5.5102153362       22.3536360091  SYS       4               0.0000000000
       138         4  MOL       C30            11.6910196404       -1.5463553141       12.2298337444  SYS       4               0.0000000000
       139         4  MOL       C31            10.2815611011       -0.1755298138       10.8108238288  SYS       4               0.0000000000
       140         4  MOL       H32             8.4175384728        0.1547031286       11.4931243768  SYS       4               0.0000000000
       141         4  MOL       C33            11.5258880926       -0.8191712389       11.0997644491  SYS       4               0.0000000000
       142         4  MOL       H34            12.5233009267       -1.9632952111       12.4185847792  SYS       4               0.0000000000
       143         4  MOL       H35            10.1870335004        0.3248263244       10.0086622738  SYS       4               0.0000000000
       144         4  MOL       H36            12.2541398457       -0.7447682057       10.4947549440  SYS       4               0.0000000000
       145         5  MOL       C1              8.5044177371       -3.7615418407      -13.3705938166  SYS       5               0.0000000000
       146         5  MOL       C2              9.5757253733       -3.6823023266      -14.2945091586  SYS       5               0.0000000000
       147         5  MOL       C3              7.2478021769       -3.0748577080      -13.6580179502  SYS       5               0.0000000000
       148         5  MOL       C4              8.6635527341       -4.4755115969      -12.1755269991  SYS       5               0.0000000000
       149         5  MOL       C5              9.4320029765       -2.9339297157      -15.4491742970  SYS       5               0.0000000000
       150         5  MOL       H6             10.3972617483       -4.1282655033      -14.1243635614  SYS       5               0.0000000000
       151         5  MOL       C7              7.1297622354       -2.3189166605      -14.8415045622  SYS       5               0.0000000000
       152         5  MOL       C8              6.1907173462       -3.1638672561      -12.7447209039  SYS       5               0.0000000000
       153         5  MOL       C9              7.6146624731       -4.5409213053      -11.2508576868  SYS       5               0.0000000000
       154         5  MOL       H10             9.4887834964       -4.9098857252      -11.9947954525  SYS       5               0.0000000000
       155         5  MOL       C11            10.5082159692       -2.8148073642      -16.3833867313  SYS       5               0.0000000000
       156         5  MOL       C12             8.2018259240       -2.2232570236      -15.7175665291  SYS       5               0.0000000000
       157         5  MOL       H13             6.3285626670       -1.8396645874      -15.0176715150  SYS       5               0.0000000000
       158         5  MOL       H14             5.3736565519       -2.7102226465      -12.9149232013  SYS       5               0.0000000000
       159         5  MOL       C15             6.3460180274       -3.8829212422      -11.5522006547  SYS       5               0.0000000000
       160         5  MOL       C16             7.7558829619       -5.2543398397      -10.0437488984  SYS       5               0.0000000000
       161         5  MOL       C17            10.3873331212       -2.0399467347      -17.4870624359  SYS       5               0.0000000000
       162         5  MOL       H18            11.3146709823       -3.2897368279      -16.2214290639  SYS       5               0.0000000000
       163         5  MOL       C19             8.1137260412       -1.4205901043      -16.8944582288  SYS       5               0.0000000000
       164         5  MOL       C20             5.2992598981       -3.9617048334      -10.6005236790  SYS       5               0.0000000000
       165         5  MOL       C21             6.7117828702       -5.3018672372       -9.1307581957  SYS       5               0.0000000000
       166         5  MOL       H22             8.5781983862       -5.6900296152       -9.8524118750  SYS       5               0.0000000000
       167         5  MOL       C23             9.1734059928       -1.3249800922      -17.7346795939  SYS       5               0.0000000000
       168         5  MOL       H24            11.0942299813       -1.9662008457      -18.1169682237  SYS       5               0.0000000000
       169         5  MOL       H25             7.3056081715       -0.9512361717      -17.0673430735  SYS       5               0.0000000000
       170         5  MOL       H26             4.4730506952       -3.5249974269      -10.7720453419  SYS       5               0.0000000000
       171         5  MOL       C27             5.4597322718       -4.6309831352       -9.4004051703  SYS       5               0.0000000000
       172         5  MOL       C28             6.8594131457       -5.9743213022       -7.8805099481  SYS       5               0.0000000000
       173         5  MOL       H29             9.1189690425       -0.7710698424      -18.5047282533  SYS       5               0.0000000000
       174         5  MOL       C30             4.4045350145       -4.7031679614       -8.4378432172  SYS       5               0.0000000000
       175         5  MOL       C31             5.8487558872       -5.9735254925       -6.9768473501  SYS       5               0.0000000000
       176         5  MOL       H32             7.6769731935       -6.4177298677       -7.6850075488  SYS       5               0.0000000000
       177         5  MOL       C33             4.5969569763       -5.3417153997       -7.2595594323  SYS       5               0.0000000000
       178         5  MOL       H34             3.5780134718       -4.2694095644       -8.6135525295  SYS       5               0.0000000000
       179         5  MOL       H35             5.9294498757       -6.4276414788       -6.1461716950  SYS       5               0.0000000000
       180         5  MOL       H36             3.9048225928       -5.3483972620       -6.6093069608  SYS       5               0.0000000000
       181         6  MOL       C1              7.3002608553      -10.1986307679       15.6409740096  SYS       6               0.0000000000
       182         6  MOL       C2              6.2175703192      -10.2748029694       16.5517854602  SYS       6               0.0000000000
       183         6  MOL       C3              8.5308059718      -10.9192471701       15.9567288252  SYS       6               0.0000000000
       184         6  MOL       C4              7.2147894101       -9.4595148445       14.4536813851  SYS       6               0.0000000000
       185         6  MOL       C5              6.3258593340      -11.0067810537       17.7207383445  SYS       6               0.0000000000
       186         6  MOL       H6              5.4370966652       -9.7684564995       16.3588377415  SYS       6               0.0000000000
       187         6  MOL       C7              8.6203152710      -11.6749124801       17.1428902300  SYS       6               0.0000000000
       188         6  MOL       C8              9.6045215565      -10.8865945611       15.0592149359  SYS       6               0.0000000000
       189         6  MOL       C9              8.2980227773       -9.4043370799       13.5687952792  SYS       6               0.0000000000
       190         6  MOL       H10             6.4118072466       -8.9960384365       14.2468968111  SYS       6               0.0000000000
       191         6  MOL       C11             5.2349341270      -11.0959523767       18.6411230888  SYS       6               0.0000000000
       192         6  MOL       C12             7.5461619955      -11.7219875147       18.0203493852  SYS       6               0.0000000000
       193         6  MOL       H13             9.4015514565      -12.1758614352       17.3462575304  SYS       6               0.0000000000
       194         6  MOL       H14            10.3876875469      -11.3766876437       15.2801456860  SYS       6               0.0000000000
       195         6  MOL       C15             9.5244634365      -10.1338045297       13.8801647477  SYS       6               0.0000000000
       196         6  MOL       C16             8.2291923947       -8.6663565125       12.3701844511  SYS       6               0.0000000000
       197         6  MOL       C17             5.3326054946      -11.8553212749       19.7577881672  SYS       6               0.0000000000
       198         6  MOL       H18             4.4439500695      -10.6016716419       18.4617108676  SYS       6               0.0000000000
       199         6  MOL       C19             7.6167101175      -12.4902820368       19.2211226079  SYS       6               0.0000000000
       200         6  MOL       C20            10.6267990020      -10.0706149712       12.9922109875  SYS       6               0.0000000000
       201         6  MOL       C21             9.3156365840       -8.6013955290       11.5091531102  SYS       6               0.0000000000
       202         6  MOL       H22             7.4476425030       -8.1776274245       12.1400502776  SYS       6               0.0000000000
       203         6  MOL       C23             6.5486905033      -12.5476853691       20.0542335115  SYS       6               0.0000000000
       204         6  MOL       H24             4.5960126419      -11.9059779382       20.3551053362  SYS       6               0.0000000000
       205         6  MOL       H25             8.4203247621      -12.9543675471       19.4262199414  SYS       6               0.0000000000
       206         6  MOL       H26            11.4263843076      -10.5374714079       13.2054317452  SYS       6               0.0000000000
       207         6  MOL       C27            10.5241072046       -9.3274842045       11.8298081661  SYS       6               0.0000000000
       208         6  MOL       C28             9.2410741580       -7.8593294050       10.2922356282  SYS       6               0.0000000000
       209         6  MOL       H29             6.6080880249      -13.0565962916       20.8543812991  SYS       6               0.0000000000
       210         6  MOL       C30            11.6291884529       -9.2286204210       10.9274785144  SYS       6               0.0000000000
       211         6  MOL       C31            10.3182773907       -7.8011829246        9.4710858248  SYS       6               0.0000000000
       212         6  MOL       H32             8.4590949662       -7.3612091917       10.0833778502  SYS       6               0.0000000000
       213         6  MOL       C33            11.5263539056       -8.4959111831        9.7935984740  SYS       6               0.0000000000
       214         6  MOL       H34            12.4448409651       -9.6618758758       11.1491960370  SYS       6               0.0000000000
       215         6  MOL       H35            10.2700032138       -7.2678539876        8.6862388706  SYS       6               0.0000000000
       216         6  MOL       H36            12.2745430610       -8.4307517513        9.2123152685  SYS       6               0.0000000000
       217         7  MOL       C1              8.9122548237       11.2777195673      -10.5275728699  SYS       7               0.0000000000
       218         7  MOL       C2              9.9784388360       11.3476614165      -11.4581416748  SYS       7               0.0000000000
       219         7  MOL       C3              7.6741985780       11.9998700077      -10.8085459486  SYS       7               0.0000000000
       220         7  MOL       C4              9.0377198614       10.5369132589       -9.3448954011  SYS       7               0.0000000000
       221         7  MOL       C5              9.8368994700       12.0766242636      -12.6254244379  SYS       7               0.0000000000
       222         7  MOL       H6             10.8051615518       10.9177903734      -11.2724130233  SYS       7               0.0000000000
       223         7  MOL       C7              7.5484992932       12.7350240114      -12.0042754901  SYS       7               0.0000000000
       224         7  MOL       C8              6.6213509569       11.9555447567       -9.8871287294  SYS       7               0.0000000000
       225         7  MOL       C9              7.9836140316       10.4971001778       -8.4247115259  SYS       7               0.0000000000
       226         7  MOL       H10             9.8438533615       10.0724936562       -9.1530261787  SYS       7               0.0000000000
       227         7  MOL       C11            10.9123471951       12.1646949807      -13.5639515561  SYS       7               0.0000000000
       228         7  MOL       C12             8.6070395367       12.7853531178      -12.9003309697  SYS       7               0.0000000000
       229         7  MOL       H13             6.7288076807       13.1692824025      -12.2096127814  SYS       7               0.0000000000
       230         7  MOL       H14             5.8420851899       12.4788187763      -10.0330045684  SYS       7               0.0000000000
       231         7  MOL       C15             6.7492194777       11.2292505941       -8.6957396610  SYS       7               0.0000000000
       232         7  MOL       C16             8.1071106611        9.7819432249       -7.2166883581  SYS       7               0.0000000000
       233         7  MOL       C17            10.7596386608       12.8575791677      -14.7170835197  SYS       7               0.0000000000
       234         7  MOL       H18            11.7232080926       11.7007071790      -13.3925517474  SYS       7               0.0000000000
       235         7  MOL       C19             8.4993520098       13.4941359083      -14.1344866314  SYS       7               0.0000000000
       236         7  MOL       C20             5.7053367919       11.2124717878       -7.7378117352  SYS       7               0.0000000000
       237         7  MOL       C21             7.0756142522        9.7705339243       -6.2883345116  SYS       7               0.0000000000
       238         7  MOL       H22             8.9108333010        9.3026173093       -7.0526314206  SYS       7               0.0000000000
       239         7  MOL       C23             9.5397578333       13.5480795392      -15.0020583136  SYS       7               0.0000000000
       240         7  MOL       H24            11.4667511362       12.8838687220      -15.3505057604  SYS       7               0.0000000000
       241         7  MOL       H25             7.7006550694       13.9724779022      -14.3255596775  SYS       7               0.0000000000
       242         7  MOL       H26             4.8945851008       11.6759197166       -7.9128900005  SYS       7               0.0000000000
       243         7  MOL       C27             5.8568566961       10.4984380728       -6.5625811896  SYS       7               0.0000000000
       244         7  MOL       C28             7.2100123086        9.0750885085       -5.0492208430  SYS       7               0.0000000000
       245         7  MOL       H29             9.4398914379       14.0171728757      -15.8222613546  SYS       7               0.0000000000
       246         7  MOL       C30             4.8330934813       10.4997202759       -5.5640399281  SYS       7               0.0000000000
       247         7  MOL       C31             6.2003558149        9.1107367097       -4.1451424235  SYS       7               0.0000000000
       248         7  MOL       H32             8.0057850376        8.5910725612       -4.8602470302  SYS       7               0.0000000000
       249         7  MOL       C33             4.9972870593        9.8445457804       -4.3906224537  SYS       7               0.0000000000
       250         7  MOL       H34             4.0522886387       11.0137797632       -5.7321012613  SYS       7               0.0000000000
       251         7  MOL       H35             6.3198250515        8.6796695558       -3.3068923992  SYS       7               0.0000000000
       252         7  MOL       H36             4.3295235655        9.8787786054       -3.7162019923  SYS       7               0.0000000000
       253         8  MOL       C1             -9.4444959457        1.8948632338        2.5985662617  SYS       8               0.0000000000
       254         8  MOL       C2            -10.5084525308        1.8460278183        3.5330233222  SYS       8               0.0000000000
       255         8  MOL       C3             -8.1988182832        1.1866755403        2.8813873154  SYS       8               0.0000000000
       256         8  MOL       C4             -9.5590553211        2.6576652735        1.4288352440  SYS       8               0.0000000000
       257         8  MOL       C5            -10.3784240332        1.1042322314        4.6935409525  SYS       8               0.0000000000
       258         8  MOL       H6            -11.3151561615        2.3144529716        3.3525743751  SYS       8               0.0000000000
       259         8  MOL       C7             -8.0939846672        0.4460954389        4.0757791613  SYS       8               0.0000000000
       260         8  MOL       C8             -7.1340230867        1.2529775419        1.9751435476  SYS       8               0.0000000000
       261         8  MOL       C9             -8.5044784552        2.7076506929        0.5096880098  SYS       8               0.0000000000
       262         8  MOL       H10           -10.3649630816        3.1219636264        1.2357282620  SYS       8               0.0000000000
       263         8  MOL       C11           -11.4325547309        1.0538570396        5.6586566055  SYS       8               0.0000000000
       264         8  MOL       C12            -9.1576727715        0.3784670998        4.9645704260  SYS       8               0.0000000000
       265         8  MOL       H13            -7.3001862246       -0.0397115526        4.2668647235  SYS       8               0.0000000000
       266         8  MOL       H14            -6.3201533348        0.7973101625        2.1549597365  SYS       8               0.0000000000
       267         8  MOL       C15            -7.2617835780        1.9945008434        0.7931613434  SYS       8               0.0000000000
       268         8  MOL       C16            -8.6169674601        3.4355929994       -0.6917557383  SYS       8               0.0000000000
       269         8  MOL       C17           -11.2996905472        0.3130661827        6.7841332748  SYS       8               0.0000000000
       270         8  MOL       H18           -12.2585756916        1.4983222336        5.5093313482  SYS       8               0.0000000000
       271         8  MOL       C19            -9.0585043748       -0.3675719797        6.1772951122  SYS       8               0.0000000000
       272         8  MOL       C20            -6.2013891761        2.0379484182       -0.1456008849  SYS       8               0.0000000000
       273         8  MOL       C21            -7.5652784583        3.4862723862       -1.5958230592  SYS       8               0.0000000000
       274         8  MOL       H22            -9.4251022042        3.9019044344       -0.8709483010  SYS       8               0.0000000000
       275         8  MOL       C23           -10.0915034463       -0.4033421956        7.0546024858  SYS       8               0.0000000000
       276         8  MOL       H24           -12.0055677852        0.2559234485        7.4169009741  SYS       8               0.0000000000
       277         8  MOL       H25            -8.2509224268       -0.8339884048        6.3603357909  SYS       8               0.0000000000
       278         8  MOL       H26            -5.3921503044        1.5730832990        0.0326897645  SYS       8               0.0000000000
       279         8  MOL       C27            -6.3500555379        2.7528143528       -1.3206899329  SYS       8               0.0000000000
       280         8  MOL       C28            -7.6844803690        4.1832690475       -2.8356199805  SYS       8               0.0000000000
       281         8  MOL       H29           -10.0338672973       -0.8957257158        7.8651525573  SYS       8               0.0000000000
       282         8  MOL       C30            -5.3112209173        2.7616513998       -2.3035032171  SYS       8               0.0000000000
       283         8  MOL       C31            -6.6695110865        4.1673894433       -3.7342967916  SYS       8               0.0000000000
       284         8  MOL       H32            -8.4872747135        4.6565610057       -3.0220408433  SYS       8               0.0000000000
       285         8  MOL       C33            -5.4720735494        3.4311774147       -3.4692575075  SYS       8               0.0000000000
       286         8  MOL       H34            -4.5034318953        2.2858431100       -2.1510521193  SYS       8               0.0000000000
       287         8  MOL       H35            -6.7627244553        4.6056443142       -4.5721504952  SYS       8               0.0000000000
       288         8  MOL       H36            -4.7739720720        3.4261846630       -4.1131148893  SYS       8               0.0000000000
       289         9  MOL       C1             10.7654508624       -4.8978704383        0.7232449427  SYS       9               0.0000000000
       290         9  MOL       C2             11.8505011974       -4.8463209417       -0.1864840996  SYS       9               0.0000000000
       291         9  MOL       C3              9.5184558515       -4.2143824854        0.3899611934  SYS       9               0.0000000000
       292         9  MOL       C4             10.8791133216       -5.6079817511        1.9257773640  SYS       9               0.0000000000
       293         9  MOL       C5             11.7466495789       -4.1181468605       -1.3582121491  SYS       9               0.0000000000
       294         9  MOL       H6             12.6633590734       -5.3002704564        0.0031118010  SYS       9               0.0000000000
       295         9  MOL       C7              9.4369023358       -3.4847636892       -0.8129628652  SYS       9               0.0000000000
       296         9  MOL       C8              8.4426844686       -4.2700242247        1.2838753172  SYS       9               0.0000000000
       297         9  MOL       C9              9.7979346195       -5.6663344108        2.8129696357  SYS       9               0.0000000000
       298         9  MOL       H10            11.6876813086       -6.0764978764        2.0962503410  SYS       9               0.0000000000
       299         9  MOL       C11            12.8333889524       -4.0657384570       -2.2863437690  SYS       9               0.0000000000
       300         9  MOL       C12            10.5250825403       -3.4108150332       -1.6710720227  SYS       9               0.0000000000
       301         9  MOL       H13             8.6334968951       -3.0196648635       -1.0151035903  SYS       9               0.0000000000
       302         9  MOL       H14             7.6134501099       -3.8647863323        1.0591460930  SYS       9               0.0000000000
       303         9  MOL       C15             8.5539008842       -4.9718966478        2.4914627845  SYS       9               0.0000000000
       304         9  MOL       C16             9.8855631871       -6.3910106960        4.0184514370  SYS       9               0.0000000000
       305         9  MOL       C17            12.7235831362       -3.3441892792       -3.4267082655  SYS       9               0.0000000000
       306         9  MOL       H18            13.6521241636       -4.5171801037       -2.1189189737  SYS       9               0.0000000000
       307         9  MOL       C19            10.4663765952       -2.6473785456       -2.8755753165  SYS       9               0.0000000000
       308         9  MOL       C20             7.4583977564       -5.0420848283        3.3873115532  SYS       9               0.0000000000
       309         9  MOL       C21             8.7944200907       -6.4705224743        4.8722901203  SYS       9               0.0000000000
       310         9  MOL       H22            10.6817020227       -6.8600233074        4.2394225166  SYS       9               0.0000000000
       311         9  MOL       C23            11.5208681763       -2.6306754957       -3.7275162364  SYS       9               0.0000000000
       312         9  MOL       H24            13.4371312849       -3.2960322552       -4.0515705455  SYS       9               0.0000000000
       313         9  MOL       H25             9.6786287774       -2.1642000762       -3.0974507685  SYS       9               0.0000000000
       314         9  MOL       H26             6.6469013709       -4.6031750686        3.1601848819  SYS       9               0.0000000000
       315         9  MOL       C27             7.5667412842       -5.7757739335        4.5551862206  SYS       9               0.0000000000
       316         9  MOL       C28             8.8505045417       -7.2528597680        6.0647299463  SYS       9               0.0000000000
       317         9  MOL       H29            11.4795950866       -2.1303573468       -4.5341965677  SYS       9               0.0000000000
       318         9  MOL       C30             6.4638282042       -5.8783928052        5.4597466215  SYS       9               0.0000000000
       319         9  MOL       C31             7.7673388094       -7.3439465372        6.8749706600  SYS       9               0.0000000000
       320         9  MOL       H32             9.6384786819       -7.7361237799        6.2856132462  SYS       9               0.0000000000
       321         9  MOL       C33             6.5600127364       -6.6370503353        6.5770241188  SYS       9               0.0000000000
       322         9  MOL       H34             5.6614752023       -5.4067567212        5.2701495897  SYS       9               0.0000000000
       323         9  MOL       H35             7.8149601201       -7.8800391577        7.6579724517  SYS       9               0.0000000000
       324         9  MOL       H36             5.8220235727       -6.6968796080        7.1717638777  SYS       9               0.0000000000
       325        10  MOL       C1             -8.9885120687       -1.3356266532      -11.7101037348  SYS       10              0.0000000000
       326        10  MOL       C2            -10.0346411692       -1.9795066008      -11.0071730069  SYS       10              0.0000000000
       327        10  MOL       C3             -7.8552257841       -0.7954849871      -10.9736972851  SYS       10              0.0000000000
       328        10  MOL       C4             -9.0697554919       -1.1850887673      -13.1023010478  SYS       10              0.0000000000
       329        10  MOL       C5             -9.9623744234       -2.1367801184       -9.6279926692  SYS       10              0.0000000000
       330        10  MOL       H6            -10.7908253155       -2.3103341528      -11.4783559217  SYS       10              0.0000000000
       331        10  MOL       C7             -7.8055218857       -0.9546728180       -9.5781550396  SYS       10              0.0000000000
       332        10  MOL       C8             -6.8186754208       -0.1606260711      -11.6707814877  SYS       10              0.0000000000
       333        10  MOL       C9             -8.0348056281       -0.5363373916      -13.7888935972  SYS       10              0.0000000000
       334        10  MOL       H10            -9.8130469967       -1.5134445777      -13.5930776303  SYS       10              0.0000000000
       335        10  MOL       C11           -11.0050658260       -2.8134006627       -8.8964413234  SYS       10              0.0000000000
       336        10  MOL       C12            -8.8204904572       -1.6243623003       -8.9081496480  SYS       10              0.0000000000
       337        10  MOL       H13            -7.0569222905       -0.6098870109       -9.1045736676  SYS       10              0.0000000000
       338        10  MOL       H14            -6.0848191492        0.1931199055      -11.1834620657  SYS       10              0.0000000000
       339        10  MOL       C15            -6.8898621155       -0.0064680827      -13.0631332031  SYS       10              0.0000000000
       340        10  MOL       C16            -8.1189422095       -0.3393408643      -15.1779446434  SYS       10              0.0000000000
       341        10  MOL       C17           -10.9013662655       -2.9837031074       -7.5577214783  SYS       10              0.0000000000
       342        10  MOL       H18           -11.7490936458       -3.1684950838       -9.3675478353  SYS       10              0.0000000000
       343        10  MOL       C19            -8.7664587978       -1.8323546510       -7.4868856194  SYS       10              0.0000000000
       344        10  MOL       C20            -5.8449240129        0.6311967361      -13.7734620150  SYS       10              0.0000000000
       345        10  MOL       C21            -7.1002981506        0.3044219832      -15.8674996422  SYS       10              0.0000000000
       346        10  MOL       H22            -8.8719902699       -0.6777003878      -15.6491021279  SYS       10              0.0000000000
       347        10  MOL       C23            -9.7669130219       -2.4910951579       -6.8483810770  SYS       10              0.0000000000
       348        10  MOL       H24           -11.5836439998       -3.4428777142       -7.0823422146  SYS       10              0.0000000000
       349        10  MOL       H25            -8.0214058481       -1.5036074172       -6.9969439618  SYS       10              0.0000000000
       350        10  MOL       H26            -5.0795915727        0.9675117485      -13.3213191925  SYS       10              0.0000000000
       351        10  MOL       C27            -5.9434883320        0.7873904832      -15.1511355700  SYS       10              0.0000000000
       352        10  MOL       C28            -7.1668130731        0.5056954395      -17.2892015946  SYS       10              0.0000000000
       353        10  MOL       H29            -9.7158811547       -2.6483671616       -5.9124861004  SYS       10              0.0000000000
       354        10  MOL       C30            -4.8957798837        1.4412350903      -15.8961069343  SYS       10              0.0000000000
       355        10  MOL       C31            -6.1523153857        1.1269098479      -17.9429774464  SYS       10              0.0000000000
       356        10  MOL       H32            -7.9372062978        0.1957531271      -17.7514261210  SYS       10              0.0000000000
       357        10  MOL       C33            -5.0088953678        1.6009300381      -17.2353715675  SYS       10              0.0000000000
       358        10  MOL       H34            -4.1387708671        1.7837299447      -15.4364925150  SYS       10              0.0000000000
       359        10  MOL       H35            -6.1954259219        1.2485605046      -18.8845616166  SYS       10              0.0000000000
       360        10  MOL       H36            -4.3288681914        2.0527040081      -17.7209567711  SYS       10              0.0000000000
       361        11  MOL       C1             -6.7453581374        4.8377344293        4.1611787985  SYS       11              0.0000000000
       362        11  MOL       C2             -7.8269903764        4.2325326486        4.8444661416  SYS       11              0.0000000000
       363        11  MOL       C3             -5.5823396144        5.2993317450        4.9046175081  SYS       11              0.0000000000
       364        11  MOL       C4             -6.8040976276        5.0238537268        2.7721558368  SYS       11              0.0000000000
       365        11  MOL       C5             -7.7559262451        4.0539627974        6.2211137159  SYS       11              0.0000000000
       366        11  MOL       H6             -8.5788544018        3.9317725380        4.3469538078  SYS       11              0.0000000000
       367        11  MOL       C7             -5.5533050594        5.1309844649        6.2996678982  SYS       11              0.0000000000
       368        11  MOL       C8             -4.5234462385        5.9127498719        4.2220694105  SYS       11              0.0000000000
       369        11  MOL       C9             -5.7397890746        5.6159529010        2.0792815555  SYS       11              0.0000000000
       370        11  MOL       H10            -7.5541864193        4.7140111566        2.2796867104  SYS       11              0.0000000000
       371        11  MOL       C11            -8.8307957301        3.4186544019        6.9430741912  SYS       11              0.0000000000
       372        11  MOL       C12            -6.5996862483        4.5019863265        6.9607277887  SYS       11              0.0000000000
       373        11  MOL       H13            -4.7751043697        5.4101405259        6.7687451874  SYS       11              0.0000000000
       374        11  MOL       H14            -3.7612746075        6.1945002492        4.7128571369  SYS       11              0.0000000000
       375        11  MOL       C15            -4.5810286413        6.0762282588        2.8301518071  SYS       11              0.0000000000
       376        11  MOL       C16            -5.7798755047        5.7805196985        0.6840538850  SYS       11              0.0000000000
       377        11  MOL       C17            -8.7496515387        3.2552997877        8.2842148391  SYS       11              0.0000000000
       378        11  MOL       H18            -9.6006548097        3.1090312808        6.4814885426  SYS       11              0.0000000000
       379        11  MOL       C19            -6.5811633431        4.3251389693        8.3871055762  SYS       11              0.0000000000
       380        11  MOL       C20            -3.5207940657        6.7114236090        2.1405804960  SYS       11              0.0000000000
       381        11  MOL       C21            -4.7151491146        6.3792624212        0.0241923191  SYS       11              0.0000000000
       382        11  MOL       H22            -6.5193001885        5.4550079406        0.1832034526  SYS       11              0.0000000000
       383        11  MOL       C23            -7.6210970886        3.7236162637        9.0189631569  SYS       11              0.0000000000
       384        11  MOL       H24            -9.4771099382        2.8400867779        8.7322462040  SYS       11              0.0000000000
       385        11  MOL       H25            -5.8449593765        4.6320168519        8.9038755000  SYS       11              0.0000000000
       386        11  MOL       H26            -2.7700281219        7.0416760580        2.6207455528  SYS       11              0.0000000000
       387        11  MOL       C27            -3.5746508916        6.8705474699        0.7607707715  SYS       11              0.0000000000
       388        11  MOL       C28            -4.7420737347        6.5451095810       -1.4033725538  SYS       11              0.0000000000
       389        11  MOL       H29            -7.6029811980        3.6155880628        9.9630181682  SYS       11              0.0000000000
       390        11  MOL       C30            -2.5118125605        7.5152259668        0.0293663588  SYS       11              0.0000000000
       391        11  MOL       C31            -3.6976791857        7.1388115734       -2.0352694889  SYS       11              0.0000000000
       392        11  MOL       H32            -5.4714571301        6.2112466813       -1.9130360611  SYS       11              0.0000000000
       393        11  MOL       C33            -2.5751793710        7.6448226368       -1.3164109997  SYS       11              0.0000000000
       394        11  MOL       H34            -1.7665634607        7.8453970564        0.5163998506  SYS       11              0.0000000000
       395        11  MOL       H35            -3.7381645273        7.2190000159       -2.9814031481  SYS       11              0.0000000000
       396        11  MOL       H36            -1.8603659285        8.0755101535       -1.7701506562  SYS       11              0.0000000000
       397        12  MOL       C1             -6.3159113421        7.8470475231      -12.6263454007  SYS       12              0.0000000000
       398        12  MOL       C2             -5.2729983946        8.4679694854      -13.3542654256  SYS       12              0.0000000000
       399        12  MOL       C3             -7.4965813230        7.3706949214      -13.3316764147  SYS       12              0.0000000000
       400        12  MOL       C4             -6.2004830653        7.6821392357      -11.2381965972  SYS       12              0.0000000000
       401        12  MOL       C5             -5.3934553722        8.6205201446      -14.7306063249  SYS       12              0.0000000000
       402        12  MOL       H6             -4.4822763980        8.7495806196      -12.9084756157  SYS       12              0.0000000000
       403        12  MOL       C7             -7.6013720430        7.5382434925      -14.7231848753  SYS       12              0.0000000000
       404        12  MOL       C8             -8.5122288690        6.7342203471      -12.6058878185  SYS       12              0.0000000000
       405        12  MOL       C9             -7.2269284671        7.0466451363      -10.5268837301  SYS       12              0.0000000000
       406        12  MOL       H10            -5.4365153126        7.9974421438      -10.7711861015  SYS       12              0.0000000000
       407        12  MOL       C11            -4.3450666478        9.2625162228      -15.4848676943  SYS       12              0.0000000000
       408        12  MOL       C12            -6.5790869373        8.1686753300      -15.4196339334  SYS       12              0.0000000000
       409        12  MOL       H13            -8.3616103770        7.2111356548      -15.1907274520  SYS       12              0.0000000000
       410        12  MOL       H14            -9.2764414712        6.4107965987      -13.0669058543  SYS       12              0.0000000000
       411        12  MOL       C15            -8.4079183051        6.5520717818      -11.2190148218  SYS       12              0.0000000000
       412        12  MOL       C16            -7.1234206384        6.8783104359       -9.1353741274  SYS       12              0.0000000000
       413        12  MOL       C17            -4.4664032421        9.3987757075      -16.8260008462  SYS       12              0.0000000000
       414        12  MOL       H18            -3.5627595138        9.5388741439      -15.0230964968  SYS       12              0.0000000000
       415        12  MOL       C19            -6.6412092983        8.3565239376      -16.8433703529  SYS       12              0.0000000000
       416        12  MOL       C20            -9.4479539112        5.9403741087      -10.4792641902  SYS       12              0.0000000000
       417        12  MOL       C21            -8.1462526759        6.2608596668       -8.4281813736  SYS       12              0.0000000000
       418        12  MOL       H22            -6.3686924685        7.2089696953       -8.6614461084  SYS       12              0.0000000000
       419        12  MOL       C23            -5.6255131501        8.9474642012      -17.5228456672  SYS       12              0.0000000000
       420        12  MOL       H24            -3.7577937489        9.8151052224      -17.3023116605  SYS       12              0.0000000000
       421        12  MOL       H25            -7.4008415402        8.0582149127      -17.3303940200  SYS       12              0.0000000000
       422        12  MOL       H26           -10.2230869309        5.6255057369      -10.9301537270  SYS       12              0.0000000000
       423        12  MOL       C27            -9.3268661227        5.7773134050       -9.1041842685  SYS       12              0.0000000000
       424        12  MOL       C28            -8.0626928511        6.1191906976       -7.0002040134  SYS       12              0.0000000000
       425        12  MOL       H29            -5.6802553344        9.0740766202      -18.4631704679  SYS       12              0.0000000000
       426        12  MOL       C30           -10.3651874979        5.1665763852       -8.3110404531  SYS       12              0.0000000000
       427        12  MOL       C31            -9.0760542014        5.5549781607       -6.2950098899  SYS       12              0.0000000000
       428        12  MOL       H32            -7.2842074938        6.4385901677       -6.5584280545  SYS       12              0.0000000000
       429        12  MOL       C33           -10.2402561266        5.0785961180       -6.9662062726  SYS       12              0.0000000000
       430        12  MOL       H34           -11.1550244435        4.8462032867       -8.7295251820  SYS       12              0.0000000000
       431        12  MOL       H35            -9.0182082312        5.4749137289       -5.3497682907  SYS       12              0.0000000000
       432        12  MOL       H36           -10.9319406548        4.6834558401       -6.4487448297  SYS       12              0.0000000000
       433        13  MOL       C1             -5.3669404291        8.7141958317       16.6481465424  SYS       13              0.0000000000
       434        13  MOL       C2             -4.3118138937        9.3410236717       15.9432536833  SYS       13              0.0000000000
       435        13  MOL       C3             -6.5515962558        8.2741933136       15.9260844692  SYS       13              0.0000000000
       436        13  MOL       C4             -5.2734820745        8.5165104233       18.0336650461  SYS       13              0.0000000000
       437        13  MOL       C5             -4.4179877756        9.5259666943       14.5697111715  SYS       13              0.0000000000
       438        13  MOL       H6             -3.5248129773        9.6064258327       16.4052774158  SYS       13              0.0000000000
       439        13  MOL       C7             -6.6373486709        8.4832233324       14.5388922052  SYS       13              0.0000000000
       440        13  MOL       C8             -7.5982420753        7.6659083891       16.6317266339  SYS       13              0.0000000000
       441        13  MOL       C9             -6.3182517156        7.9002210938       18.7351297687  SYS       13              0.0000000000
       442        13  MOL       H10            -4.5013802313        8.8127741844       18.4997637283  SYS       13              0.0000000000
       443        13  MOL       C11            -3.3558323555       10.1753908490       13.8415201073  SYS       13              0.0000000000
       444        13  MOL       C12            -5.6008751662        9.1057078938       13.8564055210  SYS       13              0.0000000000
       445        13  MOL       H13            -7.4132849577        8.2096305423       14.0628378106  SYS       13              0.0000000000
       446        13  MOL       H14            -8.3733112323        7.3830596801       16.1622312958  SYS       13              0.0000000000
       447        13  MOL       C15            -7.5062383960        7.4633620750       18.0166402934  SYS       13              0.0000000000
       448        13  MOL       C16            -6.2150770680        7.7030728568       20.1228750517  SYS       13              0.0000000000
       449        13  MOL       C17            -3.4644736881       10.3493175736       12.5036584169  SYS       13              0.0000000000
       450        13  MOL       H18            -2.5791760806       10.4547585339       14.3109554257  SYS       13              0.0000000000
       451        13  MOL       C19            -5.6683111016        9.3278062361       12.4378511866  SYS       13              0.0000000000
       452        13  MOL       C20            -8.5457377399        6.8312775545       18.7398203222  SYS       13              0.0000000000
       453        13  MOL       C21            -7.2345270269        7.0527013570       20.8049975581  SYS       13              0.0000000000
       454        13  MOL       H22            -5.4448326281        8.0017908760       20.5930335051  SYS       13              0.0000000000
       455        13  MOL       C23            -4.6315062779        9.9290766056       11.8006342195  SYS       13              0.0000000000
       456        13  MOL       H24            -2.7651598604       10.7638919175       12.0123154061  SYS       13              0.0000000000
       457        13  MOL       H25            -6.4330647423        9.0490745978       11.9472576558  SYS       13              0.0000000000
       458        13  MOL       H26            -9.3228730843        6.5427611425       18.2749616337  SYS       13              0.0000000000
       459        13  MOL       C27            -8.4198258475        6.6140211078       20.1069493096  SYS       13              0.0000000000
       460        13  MOL       C28            -7.1291200653        6.8271787815       22.2206954857  SYS       13              0.0000000000
       461        13  MOL       H29            -4.6722672070       10.0523355425       10.8591545737  SYS       13              0.0000000000
       462        13  MOL       C30            -9.4556294568        5.9563937763       20.8651216335  SYS       13              0.0000000000
       463        13  MOL       C31            -8.1371509543        6.1922063977       22.8712487616  SYS       13              0.0000000000
       464        13  MOL       H32            -6.3544624670        7.1120696965       22.6918262912  SYS       13              0.0000000000
       465        13  MOL       C33            -9.3144000382        5.7551125159       22.1960864916  SYS       13              0.0000000000
       466        13  MOL       H34           -10.2552509407        5.6842359264       20.4313632006  SYS       13              0.0000000000
       467        13  MOL       H35            -8.0646173987        6.0227174292       23.8035848186  SYS       13              0.0000000000
       468        13  MOL       H36            -9.9862129190        5.2943719155       22.6846714104  SYS       13              0.0000000000
       469        14  MOL       C1             -7.9898093730       -0.3502643695       17.3718920502  SYS       14              0.0000000000
       470        14  MOL       C2             -9.0292257848       -0.9869974777       18.0911024242  SYS       14              0.0000000000
       471        14  MOL       C3             -6.7957807837        0.0814688744       18.0834308160  SYS       14              0.0000000000
       472        14  MOL       C4             -8.0930314301       -0.1503377207       15.9873885111  SYS       14              0.0000000000
       473        14  MOL       C5             -8.9083133139       -1.1650830173       19.4643327623  SYS       14              0.0000000000
       474        14  MOL       H6             -9.7993164106       -1.3026585323       17.6321980786  SYS       14              0.0000000000
       475        14  MOL       C7             -6.7024943863       -0.1001204576       19.4739962999  SYS       14              0.0000000000
       476        14  MOL       C8             -5.7628643230        0.7116881199       17.3768077389  SYS       14              0.0000000000
       477        14  MOL       C9             -7.0553764333        0.4689069010       15.2780105415  SYS       14              0.0000000000
       478        14  MOL       H10            -8.8640646554       -0.4463840868       15.5193866219  SYS       14              0.0000000000
       479        14  MOL       C11            -9.9500600058       -1.8134357758       20.2223503249  SYS       14              0.0000000000
       480        14  MOL       C12            -7.7311250429       -0.7190699463       20.1714007251  SYS       14              0.0000000000
       481        14  MOL       H13            -5.9441877192        0.2185945787       19.9503886245  SYS       14              0.0000000000
       482        14  MOL       H14            -4.9832777207        1.0038549057       17.8329269795  SYS       14              0.0000000000
       483        14  MOL       C15            -5.8601835937        0.8969297684       15.9898362101  SYS       14              0.0000000000
       484        14  MOL       C16            -7.1322899363        0.6523198311       13.8866826092  SYS       14              0.0000000000
       485        14  MOL       C17            -9.8229558067       -2.0012907695       21.5566974951  SYS       14              0.0000000000
       486        14  MOL       H18           -10.7334192121       -2.1150840529       19.7785401611  SYS       14              0.0000000000
       487        14  MOL       C19            -7.6465301093       -0.9472863297       21.5880632317  SYS       14              0.0000000000
       488        14  MOL       C20            -4.8171007877        1.5306117896       15.2732439710  SYS       14              0.0000000000
       489        14  MOL       C21            -6.1098348202        1.2895954556       13.1967422254  SYS       14              0.0000000000
       490        14  MOL       H22            -7.8898372487        0.3290167896       13.4121774602  SYS       14              0.0000000000
       491        14  MOL       C23            -8.6623919427       -1.5536939089       22.2535182232  SYS       14              0.0000000000
       492        14  MOL       H24           -10.5285887631       -2.4326611727       22.0239569270  SYS       14              0.0000000000
       493        14  MOL       H25            -6.8703352438       -0.6576059539       22.0537114685  SYS       14              0.0000000000
       494        14  MOL       H26            -4.0395913404        1.8235497608       15.7346993517  SYS       14              0.0000000000
       495        14  MOL       C27            -4.9345962827        1.7401649502       13.9041646754  SYS       14              0.0000000000
       496        14  MOL       C28            -6.1924512238        1.5010584896       11.7773657439  SYS       14              0.0000000000
       497        14  MOL       H29            -8.6080317498       -1.6749230660       23.1945743335  SYS       14              0.0000000000
       498        14  MOL       C30            -3.8840719829        2.3730612649       13.1451989005  SYS       14              0.0000000000
       499        14  MOL       C31            -5.1628447364        2.1029239490       11.1291341389  SYS       14              0.0000000000
       500        14  MOL       H32            -6.9789487772        1.2280927921       11.3189633038  SYS       14              0.0000000000
       501        14  MOL       C33            -3.9872763040        2.5415720553       11.8062140876  SYS       14              0.0000000000
       502        14  MOL       H34            -3.0979854878        2.6328288828       13.6101715860  SYS       14              0.0000000000
       503        14  MOL       H35            -5.2084858177        2.2607133803       10.1930478515  SYS       14              0.0000000000
       504        14  MOL       H36            -3.3040502262        2.9744345804       11.3080556474  SYS       14              0.0000000000
       505        15  MOL       C1             -5.6802973637       -6.1876052004       13.7256121295  SYS       15              0.0000000000
       506        15  MOL       C2             -4.6442329454       -5.5266877238       13.0235881264  SYS       15              0.0000000000
       507        15  MOL       C3             -6.8354585361       -6.6651036010       12.9799693030  SYS       15              0.0000000000
       508        15  MOL       C4             -5.5911137492       -6.4069245925       15.1081535554  SYS       15              0.0000000000
       509        15  MOL       C5             -4.7389963911       -5.3277922778       11.6511609564  SYS       15              0.0000000000
       510        15  MOL       H6             -3.8679349992       -5.2487815225       13.4962447817  SYS       15              0.0000000000
       511        15  MOL       C7             -6.9266701929       -6.4486521205       11.5942642144  SYS       15              0.0000000000
       512        15  MOL       C8             -7.8721190094       -7.3207370735       13.6573825431  SYS       15              0.0000000000
       513        15  MOL       C9             -6.6148742597       -7.0825046698       15.7855861158  SYS       15              0.0000000000
       514        15  MOL       H10            -4.8259690334       -6.1002550451       15.5789707237  SYS       15              0.0000000000
       515        15  MOL       C11            -3.6782077433       -4.6802883196       10.9192769743  SYS       15              0.0000000000
       516        15  MOL       C12            -5.8929392092       -5.8056594952       10.9267964875  SYS       15              0.0000000000
       517        15  MOL       H13            -7.6832359116       -6.7645640342       11.1132591219  SYS       15              0.0000000000
       518        15  MOL       H14            -8.6257552883       -7.6574891433       13.1885628918  SYS       15              0.0000000000
       519        15  MOL       C15            -7.7852403997       -7.5254195969       15.0423131197  SYS       15              0.0000000000
       520        15  MOL       C16            -6.5444213442       -7.2936332717       17.1733218633  SYS       15              0.0000000000
       521        15  MOL       C17            -3.7769329604       -4.5441611894        9.5762765713  SYS       15              0.0000000000
       522        15  MOL       H18            -2.8977785604       -4.3745478392       11.3654426825  SYS       15              0.0000000000
       523        15  MOL       C19            -5.9521935222       -5.6131622542        9.5035588345  SYS       15              0.0000000000
       524        15  MOL       C20            -8.8226735363       -8.1937044428       15.7352827676  SYS       15              0.0000000000
       525        15  MOL       C21            -7.5830178185       -7.9262330443       17.8431631209  SYS       15              0.0000000000
       526        15  MOL       H22            -5.7816126452       -6.9915175928       17.6533290805  SYS       15              0.0000000000
       527        15  MOL       C23            -4.9227358315       -5.0032174458        8.8626844660  SYS       15              0.0000000000
       528        15  MOL       H24            -3.0637234853       -4.1293986663        9.1054964054  SYS       15              0.0000000000
       529        15  MOL       H25            -6.7068136656       -5.9187405394        9.0132611488  SYS       15              0.0000000000
       530        15  MOL       H26            -9.5939198101       -8.4911032664       15.2662328891  SYS       15              0.0000000000
       531        15  MOL       C27            -8.7476594239       -8.3669596383       17.1123998128  SYS       15              0.0000000000
       532        15  MOL       C28            -7.5328244776       -8.1561395219       19.2611882691  SYS       15              0.0000000000
       533        15  MOL       H29            -4.9356029116       -4.8930650550        7.9187887983  SYS       15              0.0000000000
       534        15  MOL       C30            -9.8134166865       -8.9971781961       17.8521120021  SYS       15              0.0000000000
       535        15  MOL       C31            -8.5577427950       -8.7699284497       19.9056580960  SYS       15              0.0000000000
       536        15  MOL       H32            -6.7574814541       -7.8958015161       19.7452221407  SYS       15              0.0000000000
       537        15  MOL       C33            -9.7153330581       -9.1915117471       19.1879792932  SYS       15              0.0000000000
       538        15  MOL       H34           -10.5833361617       -9.2820891849       17.3749741590  SYS       15              0.0000000000
       539        15  MOL       H35            -8.5128166433       -8.9374538751       20.8400857406  SYS       15              0.0000000000
       540        15  MOL       H36           -10.4312866109       -9.6036582918       19.6568880333  SYS       15              0.0000000000
       541        16  MOL       C1             -5.1456485424       -8.9621220412        0.2668381072  SYS       16              0.0000000000
       542        16  MOL       C2             -4.1003998406       -8.3028952610       -0.4230562997  SYS       16              0.0000000000
       543        16  MOL       C3             -6.2660093261       -9.5104660938       -0.4831590900  SYS       16              0.0000000000
       544        16  MOL       C4             -5.1214802794       -9.1096366181        1.6615175861  SYS       16              0.0000000000
       545        16  MOL       C5             -4.1730027312       -8.1668428822       -1.8044738383  SYS       16              0.0000000000
       546        16  MOL       H6             -3.3729631791       -7.9388778776        0.0684738816  SYS       16              0.0000000000
       547        16  MOL       C7             -6.2996739303       -9.3755093221       -1.8817307773  SYS       16              0.0000000000
       548        16  MOL       C8             -7.3131286401      -10.1560794321        0.1877607579  SYS       16              0.0000000000
       549        16  MOL       C9             -6.1677447577       -9.7511277015        2.3377044893  SYS       16              0.0000000000
       550        16  MOL       H10            -4.3962576700       -8.7616695637        2.1656331958  SYS       16              0.0000000000
       551        16  MOL       C11            -3.1277753520       -7.4879988754       -2.5303241210  SYS       16              0.0000000000
       552        16  MOL       C12            -5.2729667589       -8.7262748777       -2.5539803207  SYS       16              0.0000000000
       553        16  MOL       H13            -7.0283912533       -9.7546615323       -2.3600325511  SYS       16              0.0000000000
       554        16  MOL       H14            -8.0388861378      -10.5137899019       -0.3087075053  SYS       16              0.0000000000
       555        16  MOL       C15            -7.2928595736      -10.2849419651        1.5843491518  SYS       16              0.0000000000
       556        16  MOL       C16            -6.1365131300       -9.9044695263        3.7344364869  SYS       16              0.0000000000
       557        16  MOL       C17            -3.2212024932       -7.3346358675       -3.8718450868  SYS       16              0.0000000000
       558        16  MOL       H18            -2.3932071798       -7.1493781297       -2.0329747656  SYS       16              0.0000000000
       559        16  MOL       C19            -5.3127190122       -8.5573702161       -3.9808869923  SYS       16              0.0000000000
       560        16  MOL       C20            -8.3371357399      -10.9431709166        2.2766648419  SYS       16              0.0000000000
       561        16  MOL       C21            -7.1551847279      -10.5756247165        4.3973175495  SYS       16              0.0000000000
       562        16  MOL       H22            -5.3917654855       -9.5712813347        4.2221807820  SYS       16              0.0000000000
       563        16  MOL       C23            -4.3239114158       -7.8660629654       -4.6028914810  SYS       16              0.0000000000
       564        16  MOL       H24            -2.5335890661       -6.8608882154       -4.3247033512  SYS       16              0.0000000000
       565        16  MOL       H25            -6.0317378390       -8.9344192303       -4.4749188098  SYS       16              0.0000000000
       566        16  MOL       H26            -9.0702188478      -11.2905574523        1.7815018241  SYS       16              0.0000000000
       567        16  MOL       C27            -8.2798880629      -11.0967465422        3.6569666438  SYS       16              0.0000000000
       568        16  MOL       C28            -7.1331901800      -10.7630959642        5.8222885842  SYS       16              0.0000000000
       569        16  MOL       H29            -4.3536115254       -7.7521940503       -5.5459661943  SYS       16              0.0000000000
       570        16  MOL       C30            -9.3289009080      -11.7816390850        4.3715870677  SYS       16              0.0000000000
       571        16  MOL       C31            -8.1530653060      -11.3990563334        6.4531173224  SYS       16              0.0000000000
       572        16  MOL       H32            -6.3967146196      -10.4292332075        6.3216490533  SYS       16              0.0000000000
       573        16  MOL       C33            -9.2616478217      -11.9111651704        5.7171826089  SYS       16              0.0000000000
       574        16  MOL       H34           -10.0559473744      -12.1532285717        3.8868856345  SYS       16              0.0000000000
       575        16  MOL       H35            -8.1683324048      -11.5224245642        7.3953409400  SYS       16              0.0000000000
       576        16  MOL       H36            -9.9470523358      -12.3929711410        6.1648580821  SYS       16              0.0000000000
       577        17  MOL       C1             -7.4573051495       -7.9626766215      -13.7058190696  SYS       17              0.0000000000
       578        17  MOL       C2             -6.4200144974       -7.3207558198      -14.4234853408  SYS       17              0.0000000000
       579        17  MOL       C3             -8.6300615076       -8.4254629586      -14.4330443526  SYS       17              0.0000000000
       580        17  MOL       C4             -7.3757660470       -8.1518459320      -12.3183602933  SYS       17              0.0000000000
       581        17  MOL       C5             -6.5180669431       -7.1403144622      -15.7982298556  SYS       17              0.0000000000
       582        17  MOL       H6             -5.6370998888       -7.0246781175      -13.9733104985  SYS       17              0.0000000000
       583        17  MOL       C7             -8.7075084232       -8.2404259234      -15.8241276264  SYS       17              0.0000000000
       584        17  MOL       C8             -9.6807893218       -9.0456777678      -13.7440497607  SYS       17              0.0000000000
       585        17  MOL       C9             -8.4364090119       -8.7487191380      -11.6239628675  SYS       17              0.0000000000
       586        17  MOL       H10            -6.6006824616       -7.8589521294      -11.8550891950  SYS       17              0.0000000000
       587        17  MOL       C11            -5.4946248625       -6.4342017492      -16.5290918392  SYS       17              0.0000000000
       588        17  MOL       C12            -7.6924820144       -7.5867183060      -16.5096494494  SYS       17              0.0000000000
       589        17  MOL       H13            -9.4870896848       -8.5361621634      -16.2805825051  SYS       17              0.0000000000
       590        17  MOL       H14           -10.4423605903       -9.3528446068      -14.2203051415  SYS       17              0.0000000000
       591        17  MOL       C15            -9.6162968450       -9.1937821414      -12.3507151529  SYS       17              0.0000000000
       592        17  MOL       C16            -8.3540779470       -8.9462570523      -10.2348805141  SYS       17              0.0000000000
       593        17  MOL       C17            -5.6284601014       -6.2187607578      -17.8586032740  SYS       17              0.0000000000
       594        17  MOL       H18            -4.7378429334       -6.0921321509      -16.0687872744  SYS       17              0.0000000000
       595        17  MOL       C19            -7.7702367858       -7.3631086231      -17.9274380740  SYS       17              0.0000000000
       596        17  MOL       C20           -10.6824678308       -9.7979142155      -11.6426311632  SYS       17              0.0000000000
       597        17  MOL       C21            -9.4067372345       -9.5409564818       -9.5523898958  SYS       17              0.0000000000
       598        17  MOL       H22            -7.5967678871       -8.6219211617       -9.7607016162  SYS       17              0.0000000000
       599        17  MOL       C23            -6.7725046663       -6.6968851109      -18.5624283201  SYS       17              0.0000000000
       600        17  MOL       H24            -4.9584195811       -5.7406473155      -18.3327160329  SYS       17              0.0000000000
       601        17  MOL       H25            -8.5318076361       -7.6850702840      -18.3960231772  SYS       17              0.0000000000
       602        17  MOL       H26           -11.4616587582      -10.0888977477      -12.1024841415  SYS       17              0.0000000000
       603        17  MOL       C27           -10.5869777495       -9.9675333707      -10.2663293019  SYS       17              0.0000000000
       604        17  MOL       C28            -9.3439232415       -9.7717517097       -8.1350121559  SYS       17              0.0000000000
       605        17  MOL       H29            -6.8543727160       -6.5507137005      -19.4979333618  SYS       17              0.0000000000
       606        17  MOL       C30           -11.6591405398      -10.5807756104       -9.5216219873  SYS       17              0.0000000000
       607        17  MOL       C31           -10.3764212195      -10.3673126659       -7.4855578931  SYS       17              0.0000000000
       608        17  MOL       H32            -8.5684289991       -9.5096483131       -7.6521747571  SYS       17              0.0000000000
       609        17  MOL       C33           -11.5508487431      -10.7710153964       -8.1859539630  SYS       17              0.0000000000
       610        17  MOL       H34           -12.4277125539      -10.8649998047      -10.0013348787  SYS       17              0.0000000000
       611        17  MOL       H35           -10.3504447310      -10.5278487437       -6.5491864175  SYS       17              0.0000000000
       612        17  MOL       H36           -12.2702084029      -11.1705127461       -7.7113454739  SYS       17              0.0000000000
       613        18  MOL       C1             -6.6719615639       -2.4929564520        2.1445442899  SYS       18              0.0000000000
       614        18  MOL       C2             -7.7404595698       -3.1215266136        2.8273990712  SYS       18              0.0000000000
       615        18  MOL       C3             -5.5016420000       -2.0342318389        2.8782398188  SYS       18              0.0000000000
       616        18  MOL       C4             -6.7227514085       -2.3124876656        0.7544626671  SYS       18              0.0000000000
       617        18  MOL       C5             -7.6794208291       -3.2734488773        4.2077214047  SYS       18              0.0000000000
       618        18  MOL       H6             -8.5077345449       -3.4154834551        2.3497452564  SYS       18              0.0000000000
       619        18  MOL       C7             -5.4793884663       -2.1951383653        4.2742925663  SYS       18              0.0000000000
       620        18  MOL       C8             -4.4389396470       -1.4130181358        2.2087876990  SYS       18              0.0000000000
       621        18  MOL       C9             -5.6739087660       -1.6897090378        0.0649086083  SYS       18              0.0000000000
       622        18  MOL       H10            -7.4850876579       -2.6117021722        0.2743839482  SYS       18              0.0000000000
       623        18  MOL       C11            -8.7528471329       -3.9085268394        4.9320280025  SYS       18              0.0000000000
       624        18  MOL       C12            -6.5331410998       -2.7994032358        4.9466182187  SYS       18              0.0000000000
       625        18  MOL       H13            -4.7268396038       -1.8821703059        4.7634542231  SYS       18              0.0000000000
       626        18  MOL       H14            -3.6619999991       -1.1206682668        2.6692850272  SYS       18              0.0000000000
       627        18  MOL       C15            -4.5113419528       -1.2433655068        0.8183016707  SYS       18              0.0000000000
       628        18  MOL       C16            -5.7306939842       -1.4930005451       -1.3255699510  SYS       18              0.0000000000
       629        18  MOL       C17            -8.6888535185       -4.0494273058        6.2766391816  SYS       18              0.0000000000
       630        18  MOL       H18            -9.5092060588       -4.2408549149        4.4639574778  SYS       18              0.0000000000
       631        18  MOL       C19            -6.5220088334       -2.9597900470        6.3750172603  SYS       18              0.0000000000
       632        18  MOL       C20            -3.4363443862       -0.6317470179        0.1302739405  SYS       18              0.0000000000
       633        18  MOL       C21            -4.6762881765       -0.8701727461       -1.9796848844  SYS       18              0.0000000000
       634        18  MOL       H22            -6.4714961566       -1.8270839173       -1.8186808567  SYS       18              0.0000000000
       635        18  MOL       C23            -7.5563152198       -3.5760110609        7.0019285170  SYS       18              0.0000000000
       636        18  MOL       H24            -9.3891402795       -4.4588073410        6.7709428430  SYS       18              0.0000000000
       637        18  MOL       H25            -5.7714921662       -2.6492193776        6.8684664078  SYS       18              0.0000000000
       638        18  MOL       H26            -2.6825990762       -0.3042335135        0.6076391853  SYS       18              0.0000000000
       639        18  MOL       C27            -3.5096518201       -0.4418509372       -1.2447392726  SYS       18              0.0000000000
       640        18  MOL       C28            -4.7091827176       -0.6297511024       -3.3964724707  SYS       18              0.0000000000
       641        18  MOL       H29            -7.5575679478       -3.6825886824        7.9463213291  SYS       18              0.0000000000
       642        18  MOL       C30            -2.4312273194        0.2056297484       -1.9504002791  SYS       18              0.0000000000
       643        18  MOL       C31            -3.6726718808       -0.0024438978       -4.0085727261  SYS       18              0.0000000000
       644        18  MOL       H32            -5.4515768235       -0.9221698082       -3.9127705978  SYS       18              0.0000000000
       645        18  MOL       C33            -2.5172210338        0.4146963036       -3.2848753096  SYS       18              0.0000000000
       646        18  MOL       H34            -1.6739901149        0.4789928054       -1.4469370331  SYS       18              0.0000000000
       647        18  MOL       H35            -3.7151740993        0.1777904079       -4.9407461578  SYS       18              0.0000000000
       648        18  MOL       H36            -1.8036286506        0.8319680031       -3.7528495717  SYS       18              0.0000000000
       649        19  MOL       C1              5.5075534279        5.2443787270        4.8076657353  SYS       19              0.0000000000
       650        19  MOL       C2              4.4634041347        4.5827346902        5.4969106207  SYS       19              0.0000000000
       651        19  MOL       C3              6.6619240848        5.7404695253        5.5423136700  SYS       19              0.0000000000
       652        19  MOL       C4              5.4543440698        5.4099323505        3.4158193826  SYS       19              0.0000000000
       653        19  MOL       C5              4.5434031852        4.4115171380        6.8740019568  SYS       19              0.0000000000
       654        19  MOL       H6              3.7174129653        4.2410034888        5.0173361918  SYS       19              0.0000000000
       655        19  MOL       C7              6.7077925008        5.5806737750        6.9379177718  SYS       19              0.0000000000
       656        19  MOL       C8              7.7072464504        6.3741125458        4.8573271303  SYS       19              0.0000000000
       657        19  MOL       C9              6.5015141617        6.0401528084        2.7304976549  SYS       19              0.0000000000
       658        19  MOL       H10             4.7046658813        5.0865804981        2.9314768934  SYS       19              0.0000000000
       659        19  MOL       C11             3.5016928998        3.7174160896        7.5904176950  SYS       19              0.0000000000
       660        19  MOL       C12             5.6748161299        4.9340540968        7.6030457582  SYS       19              0.0000000000
       661        19  MOL       H13             7.4304738385        5.9222164624        7.4523477465  SYS       19              0.0000000000
       662        19  MOL       H14             8.4484934783        6.7068367009        5.3482537469  SYS       19              0.0000000000
       663        19  MOL       C15             7.6613699665        6.5255946489        3.4636183906  SYS       19              0.0000000000
       664        19  MOL       C16             6.4499537646        6.2155384428        1.3369658792  SYS       19              0.0000000000
       665        19  MOL       C17             3.5956636431        3.5706130311        8.9326344092  SYS       19              0.0000000000
       666        19  MOL       H18             2.7577224316        3.3681231106        7.1149041328  SYS       19              0.0000000000
       667        19  MOL       C19             5.7025937337        4.7639564845        9.0300940703  SYS       19              0.0000000000
       668        19  MOL       C20             8.7309879272        7.1375442803        2.7675478859  SYS       19              0.0000000000
       669        19  MOL       C21             7.4861550001        6.8450693625        0.6605560623  SYS       19              0.0000000000
       670        19  MOL       H22             5.6916102659        5.8894821460        0.8656269855  SYS       19              0.0000000000
       671        19  MOL       C23             4.6990033984        4.1033843779        9.6617480048  SYS       19              0.0000000000
       672        19  MOL       H24             2.8971793239        3.1353434855        9.4069652526  SYS       19              0.0000000000
       673        19  MOL       H25             6.4154830721        5.1318764497        9.5396479533  SYS       19              0.0000000000
       674        19  MOL       H26             9.4794091804        7.4294005746        3.2754457054  SYS       19              0.0000000000
       675        19  MOL       C27             8.6508949200        7.2904862549        1.3883126996  SYS       19              0.0000000000
       676        19  MOL       C28             7.4304479467        7.0658740804       -0.7587091285  SYS       19              0.0000000000
       677        19  MOL       H29             4.7214919686        4.0104897613       10.6073182011  SYS       19              0.0000000000
       678        19  MOL       C30             9.7310998477        7.8945967101        0.6477750777  SYS       19              0.0000000000
       679        19  MOL       C31             8.4833167598        7.6317475579       -1.4019744189  SYS       19              0.0000000000
       680        19  MOL       H32             6.6667218637        6.7796461017       -1.2465794851  SYS       19              0.0000000000
       681        19  MOL       C33             9.6448586460        8.0573693524       -0.6931182328  SYS       19              0.0000000000
       682        19  MOL       H34            10.5003940894        8.1997815777        1.1132418943  SYS       19              0.0000000000
       683        19  MOL       H35             8.4544461745        7.7835786857       -2.3397120945  SYS       19              0.0000000000
       684        19  MOL       H36            10.3720391113        8.4546711655       -1.1575420811  SYS       19              0.0000000000
       685        20  MOL       C1              5.3470463930       -9.7294108337        1.7264911484  SYS       20              0.0000000000
       686        20  MOL       C2              4.3006075669      -10.3887509704        2.4144704045  SYS       20              0.0000000000
       687        20  MOL       C3              6.4618422418       -9.1814251004        2.4849943672  SYS       20              0.0000000000
       688        20  MOL       C4              5.3170967567       -9.5998226000        0.3301439802  SYS       20              0.0000000000
       689        20  MOL       C5              4.3443552851      -10.5145474628        3.7980733912  SYS       20              0.0000000000
       690        20  MOL       H6              3.5781524336      -10.7429425314        1.9086230066  SYS       20              0.0000000000
       691        20  MOL       C7              6.5027549927       -9.3440495829        3.8804257792  SYS       20              0.0000000000
       692        20  MOL       C8              7.4880808687       -8.5047302495        1.8124415863  SYS       20              0.0000000000
       693        20  MOL       C9              6.3471655219       -8.9331016063       -0.3465024212  SYS       20              0.0000000000
       694        20  MOL       H10             4.5923379829       -9.9732789416       -0.1560828528  SYS       20              0.0000000000
       695        20  MOL       C11             3.2895908749      -11.1846684441        4.5182108795  SYS       20              0.0000000000
       696        20  MOL       C12             5.4713552677       -9.9995861777        4.5392419966  SYS       20              0.0000000000
       697        20  MOL       H13             7.2205475087       -8.9813658796        4.3871726165  SYS       20              0.0000000000
       698        20  MOL       H14             8.2201400258       -8.1403532186        2.2946036258  SYS       20              0.0000000000
       699        20  MOL       C15             7.4574353041       -8.3809167522        0.4155856177  SYS       20              0.0000000000
       700        20  MOL       C16             6.3412435008       -8.7981754338       -1.7454696335  SYS       20              0.0000000000
       701        20  MOL       C17             3.3527905860      -11.3052814019        5.8648309653  SYS       20              0.0000000000
       702        20  MOL       H18             2.5481396666      -11.5363169193        4.0405035994  SYS       20              0.0000000000
       703        20  MOL       C19             5.4853476496      -10.1619657597        5.9673907146  SYS       20              0.0000000000
       704        20  MOL       C20             8.5050150895       -7.7029101732       -0.2522188084  SYS       20              0.0000000000
       705        20  MOL       C21             7.3679125707       -8.1270317170       -2.3959072941  SYS       20              0.0000000000
       706        20  MOL       H22             5.6377576393       -9.1816055495       -2.2569839653  SYS       20              0.0000000000
       707        20  MOL       C23             4.4584010190      -10.7850833266        6.5995622711  SYS       20              0.0000000000
       708        20  MOL       H24             2.6467364059      -11.7581948257        6.3105737116  SYS       20              0.0000000000
       709        20  MOL       H25             6.2019034640       -9.7961565080        6.4733085195  SYS       20              0.0000000000
       710        20  MOL       H26             9.2444143299       -7.3369773898        0.2196462404  SYS       20              0.0000000000
       711        20  MOL       C27             8.4692294361       -7.5836669890       -1.6366306998  SYS       20              0.0000000000
       712        20  MOL       C28             7.3502396543       -7.9520166334       -3.8225218420  SYS       20              0.0000000000
       713        20  MOL       H29             4.4555922952      -10.8474940663        7.5478950986  SYS       20              0.0000000000
       714        20  MOL       C30             9.5300313241       -6.9082955012       -2.3428606933  SYS       20              0.0000000000
       715        20  MOL       C31             8.3650625803       -7.2895211895       -4.4338891440  SYS       20              0.0000000000
       716        20  MOL       H32             6.6212922105       -8.2971702233       -4.3252405441  SYS       20              0.0000000000
       717        20  MOL       C33             9.4604577556       -6.7651103072       -3.6869532739  SYS       20              0.0000000000
       718        20  MOL       H34            10.2862734411       -6.5826061919       -1.8699599376  SYS       20              0.0000000000
       719        20  MOL       H35             8.3762276984       -7.1842389866       -5.3783620913  SYS       20              0.0000000000
       720        20  MOL       H36            10.1599594589       -6.3051371287       -4.1357869989  SYS       20              0.0000000000
       721        21  MOL       C1              5.8516533122       -1.8413143406        2.4961419533  SYS       21              0.0000000000
       722        21  MOL       C2              4.7821060874       -2.4607067755        3.1857076394  SYS       21              0.0000000000
       723        21  MOL       C3              6.9925590225       -1.3561917652        3.2586218079  SYS       21              0.0000000000
       724        21  MOL       C4              5.8120868285       -1.6925729770        1.1019446909  SYS       21              0.0000000000
       725        21  MOL       C5              4.8123674544       -2.5842737054        4.5698721200  SYS       21              0.0000000000
       726        21  MOL       H6              4.0465833353       -2.7975358450        2.6868818875  SYS       21              0.0000000000
       727        21  MOL       C7              7.0217626236       -1.5083013110        4.6555324125  SYS       21              0.0000000000
       728        21  MOL       C8              8.0450312941       -0.7294825895        2.5782200067  SYS       21              0.0000000000
       729        21  MOL       C9              6.8676323107       -1.0644639314        0.4276215793  SYS       21              0.0000000000
       730        21  MOL       H10             5.0714672001       -2.0169258079        0.6045120221  SYS       21              0.0000000000
       731        21  MOL       C11             3.7482436885       -3.2446663230        5.2852114067  SYS       21              0.0000000000
       732        21  MOL       C12             5.9590427553       -2.1150975020        5.3112589507  SYS       21              0.0000000000
       733        21  MOL       H13             7.7628559350       -1.1727856207        5.1472313527  SYS       21              0.0000000000
       734        21  MOL       H14             8.7835780089       -0.3896181461        3.0683244575  SYS       21              0.0000000000
       735        21  MOL       C15             8.0046122777       -0.5638659726        1.1859510064  SYS       21              0.0000000000
       736        21  MOL       C16             6.8542278858       -0.8942485560       -0.9674398715  SYS       21              0.0000000000
       737        21  MOL       C17             3.8208431286       -3.3671920067        6.6311847066  SYS       21              0.0000000000
       738        21  MOL       H18             2.9968995796       -3.5948834271        4.8221338752  SYS       21              0.0000000000
       739        21  MOL       C19             5.9766890604       -2.2880822537        6.7381214392  SYS       21              0.0000000000
       740        21  MOL       C20             9.0631530230        0.0944729737        0.5157567045  SYS       21              0.0000000000
       741        21  MOL       C21             7.8882012552       -0.2339347709       -1.6173915580  SYS       21              0.0000000000
       742        21  MOL       H22             6.1061153542       -1.1886994464       -1.4745732228  SYS       21              0.0000000000
       743        21  MOL       C23             4.9347486459       -2.8798560509        7.3758515606  SYS       21              0.0000000000
       744        21  MOL       H24             3.1213148187       -3.8081873823        7.0986383330  SYS       21              0.0000000000
       745        21  MOL       H25             6.7190340653       -1.9751096688        7.2422975236  SYS       21              0.0000000000
       746        21  MOL       H26             9.7906191606        0.4580813869        1.0075458909  SYS       21              0.0000000000
       747        21  MOL       C27             9.0204481071        0.2518898216       -0.8646389133  SYS       21              0.0000000000
       748        21  MOL       C28             7.8806882909       -0.0411387664       -3.0418019399  SYS       21              0.0000000000
       749        21  MOL       H29             4.9360101576       -2.9311699328        8.3248528438  SYS       21              0.0000000000
       750        21  MOL       C30            10.0946946583        0.8973387642       -1.5784863098  SYS       21              0.0000000000
       751        21  MOL       C31             8.9193484831        0.5750230821       -3.6615319973  SYS       21              0.0000000000
       752        21  MOL       H32             7.1330292508       -0.3507911808       -3.5401419967  SYS       21              0.0000000000
       753        21  MOL       C33            10.0409468267        1.0524110379       -2.9219858844  SYS       21              0.0000000000
       754        21  MOL       H34            10.8334305128        1.2400552023       -1.0901979000  SYS       21              0.0000000000
       755        21  MOL       H35             8.9008253341        0.7020016155       -4.6032174518  SYS       21              0.0000000000
       756        21  MOL       H36            10.7609412621        1.4702862395       -3.3794987251  SYS       21              0.0000000000
       757        22  MOL       C1              4.8800688398        7.9270617866       18.5259413147  SYS       22              0.0000000000
       758        22  MOL       C2              3.8405255515        7.2596273317       19.2165642869  SYS       22              0.0000000000
       759        22  MOL       C3              6.0303742727        8.4352085126       19.2587234086  SYS       22              0.0000000000
       760        22  MOL       C4              4.8001592414        8.1033299426       17.1366898976  SYS       22              0.0000000000
       761        22  MOL       C5              3.9418953119        7.0849673409       20.5918147752  SYS       22              0.0000000000
       762        22  MOL       H6              3.0895928109        6.9552097360       18.7198706003  SYS       22              0.0000000000
       763        22  MOL       C7              6.1163524339        8.2295326849       20.6464029866  SYS       22              0.0000000000
       764        22  MOL       C8              7.0538696308        9.0871949295       18.5581665957  SYS       22              0.0000000000
       765        22  MOL       C9              5.8159749306        8.7763019307       16.4448545948  SYS       22              0.0000000000
       766        22  MOL       H10             4.0383814311        7.7746399168       16.6753669219  SYS       22              0.0000000000
       767        22  MOL       C11             2.9030901898        6.3880005620       21.3096652620  SYS       22              0.0000000000
       768        22  MOL       C12             5.0913359382        7.5744677435       21.3155692849  SYS       22              0.0000000000
       769        22  MOL       H13             6.8643612533        8.5720381973       21.1225654616  SYS       22              0.0000000000
       770        22  MOL       H14             7.8241222944        9.4029085459       19.0144529194  SYS       22              0.0000000000
       771        22  MOL       C15             6.9827438372        9.2601118094       17.1680168181  SYS       22              0.0000000000
       772        22  MOL       C16             5.7360029777        8.9568636462       15.0533261696  SYS       22              0.0000000000
       773        22  MOL       C17             3.0099885984        6.1985125088       22.6455523656  SYS       22              0.0000000000
       774        22  MOL       H18             2.1561689540        6.0200456042       20.8532349758  SYS       22              0.0000000000
       775        22  MOL       C19             5.1354285844        7.3488216289       22.7344813141  SYS       22              0.0000000000
       776        22  MOL       C20             8.0144040648        9.9155147094       16.4544319993  SYS       22              0.0000000000
       777        22  MOL       C21             6.7600099170        9.5933707344       14.3649796481  SYS       22              0.0000000000
       778        22  MOL       H22             4.9815884133        8.6249618423       14.5797675346  SYS       22              0.0000000000
       779        22  MOL       C23             4.1282208161        6.7009630253       23.3735020512  SYS       22              0.0000000000
       780        22  MOL       H24             2.3389991832        5.7119498331       23.1096209357  SYS       22              0.0000000000
       781        22  MOL       H25             5.9059289175        7.6380975080       23.2097393200  SYS       22              0.0000000000
       782        22  MOL       H26             8.7679972471       10.2502496379       16.9270042229  SYS       22              0.0000000000
       783        22  MOL       C27             7.9319099006       10.0508575491       15.0735001170  SYS       22              0.0000000000
       784        22  MOL       C28             6.6957635361        9.7857130659       12.9419376564  SYS       22              0.0000000000
       785        22  MOL       H29             4.1714335626        6.5432352777       24.3097139705  SYS       22              0.0000000000
       786        22  MOL       C30             8.9851532864       10.6876377763       14.3215842914  SYS       22              0.0000000000
       787        22  MOL       C31             7.7190732626       10.3864701288       12.2827988866  SYS       22              0.0000000000
       788        22  MOL       H32             5.9378183969        9.4730002798       12.4613636771  SYS       22              0.0000000000
       789        22  MOL       C33             8.8807305418       10.8309903061       12.9797671319  SYS       22              0.0000000000
       790        22  MOL       H34             9.7478813188       11.0309154307       14.7710475170  SYS       22              0.0000000000
       791        22  MOL       H35             7.6842906847       10.5060735195       11.3406081672  SYS       22              0.0000000000
       792        22  MOL       H36             9.5740588393       11.2789867379       12.5097408140  SYS       22              0.0000000000
       793        23  MOL       C1              4.1346552753        7.2180611050      -11.0391204989  SYS       23              0.0000000000
       794        23  MOL       C2              3.1258158078        6.5616439439      -10.2945142073  SYS       23              0.0000000000
       795        23  MOL       C3              5.2994016728        7.7366904730      -10.3371413756  SYS       23              0.0000000000
       796        23  MOL       C4              4.0263876047        7.3708235303      -12.4292346162  SYS       23              0.0000000000
       797        23  MOL       C5              3.2225342652        6.4386906569       -8.9133466306  SYS       23              0.0000000000
       798        23  MOL       H6              2.3865738674        6.1914943025      -10.7633268225  SYS       23              0.0000000000
       799        23  MOL       C7              5.3902504512        7.5958325861       -8.9417006004  SYS       23              0.0000000000
       800        23  MOL       C8              6.3327865349        8.3474681669      -11.0599658493  SYS       23              0.0000000000
       801        23  MOL       C9              5.0379418791        8.0179056532      -13.1513506549  SYS       23              0.0000000000
       802        23  MOL       H10             3.2588704879        7.0512698237      -12.8874532941  SYS       23              0.0000000000
       803        23  MOL       C11             2.1965627079        5.7848706700       -8.1386919453  SYS       23              0.0000000000
       804        23  MOL       C12             4.3866839150        6.9518045999       -8.2306207251  SYS       23              0.0000000000
       805        23  MOL       H13             6.1643056180        7.9282891314       -8.5013948349  SYS       23              0.0000000000
       806        23  MOL       H14             7.0859532969        8.7114748963      -10.6111892990  SYS       23              0.0000000000
       807        23  MOL       C15             6.2116592345        8.5132811682      -12.4475211656  SYS       23              0.0000000000
       808        23  MOL       C16             4.9548750619        8.1900412330      -14.5437653382  SYS       23              0.0000000000
       809        23  MOL       C17             2.3347585725        5.6729075741       -6.7969417774  SYS       23              0.0000000000
       810        23  MOL       H18             1.4338320722        5.4406468242       -8.5874265123  SYS       23              0.0000000000
       811        23  MOL       C19             4.4696207269        6.7988931226       -6.8037671087  SYS       23              0.0000000000
       812        23  MOL       C20             7.2451591903        9.1534816182      -13.1721592171  SYS       23              0.0000000000
       813        23  MOL       C21             5.9720874384        8.8205728837      -15.2475133305  SYS       23              0.0000000000
       814        23  MOL       H22             4.1951889322        7.8448682407      -14.9990570175  SYS       23              0.0000000000
       815        23  MOL       C23             3.4800238578        6.1769831345       -6.1135050103  SYS       23              0.0000000000
       816        23  MOL       H24             1.6724309771        5.2402437661       -6.2711529830  SYS       23              0.0000000000
       817        23  MOL       H25             5.2061669071        7.1666187349       -6.3288996875  SYS       23              0.0000000000
       818        23  MOL       H26             8.0201534608        9.4840264544      -12.7323880773  SYS       23              0.0000000000
       819        23  MOL       C27             7.1331045644        9.3177377973      -14.5478624933  SYS       23              0.0000000000
       820        23  MOL       C28             5.8920832883        9.0010230335      -16.6713141451  SYS       23              0.0000000000
       821        23  MOL       H29             3.5391301546        6.0919731876       -5.1687733574  SYS       23              0.0000000000
       822        23  MOL       C30             8.1625756412        9.9903727790      -15.3014801546  SYS       23              0.0000000000
       823        23  MOL       C31             6.8936060565        9.6314285305      -17.3362027202  SYS       23              0.0000000000
       824        23  MOL       H32             5.1419999602        8.6773586579      -17.1569455306  SYS       23              0.0000000000
       825        23  MOL       C33             8.0395808026       10.1204372833      -16.6430772779  SYS       23              0.0000000000
       826        23  MOL       H34             8.9161008312       10.3389233446      -14.8406948659  SYS       23              0.0000000000
       827        23  MOL       H35             6.8387250066        9.7486428882      -18.2777371142  SYS       23              0.0000000000
       828        23  MOL       H36             8.7151249550       10.5899310641      -17.1179934373  SYS       23              0.0000000000
       829        24  MOL       C1             -5.8488148224       10.4967429988       -8.7019863349  SYS       24              0.0000000000
       830        24  MOL       C2             -6.9250928946       10.4407259199       -7.7821569436  SYS       24              0.0000000000
       831        24  MOL       C3             -4.5944093031        9.8167088749       -8.3901357610  SYS       24              0.0000000000
       832        24  MOL       C4             -5.9719876230       11.2203840062       -9.8954827158  SYS       24              0.0000000000
       833        24  MOL       C5             -6.7715129233        9.7784546702       -6.5772589156  SYS       24              0.0000000000
       834        24  MOL       H6             -7.7472821870       10.8761647840       -7.9749066711  SYS       24              0.0000000000
       835        24  MOL       C7             -4.4806920461        9.1222463328       -7.1691480383  SYS       24              0.0000000000
       836        24  MOL       C8             -3.5367521266        9.8600107476       -9.3060772318  SYS       24              0.0000000000
       837        24  MOL       C9             -4.9034299029       11.2750165930      -10.7980691246  SYS       24              0.0000000000
       838        24  MOL       H10            -6.7837182152       11.6613096998      -10.1169066628  SYS       24              0.0000000000
       839        24  MOL       C11            -7.8263507852        9.7291480467       -5.6128609922  SYS       24              0.0000000000
       840        24  MOL       C12            -5.5299441234        9.1084719407       -6.2609430875  SYS       24              0.0000000000
       841        24  MOL       H13            -3.6692820884        8.6813452433       -6.9458585342  SYS       24              0.0000000000
       842        24  MOL       H14            -2.7213825854        9.4122838205       -9.1135578676  SYS       24              0.0000000000
       843        24  MOL       C15            -3.6511142821       10.5852473203      -10.4994818959  SYS       24              0.0000000000
       844        24  MOL       C16            -5.0022202527       11.9974174176      -12.0040535250  SYS       24              0.0000000000
       845        24  MOL       C17            -7.6494788152        9.1037519536       -4.4251245939  SYS       24              0.0000000000
       846        24  MOL       H18            -8.6450016121       10.1664075324       -5.8147840853  SYS       24              0.0000000000
       847        24  MOL       C19            -5.3939087017        8.4564551246       -4.9986125917  SYS       24              0.0000000000
       848        24  MOL       C20            -2.5758755409       10.6414351715      -11.4205155956  SYS       24              0.0000000000
       849        24  MOL       C21            -3.9389273458       12.0474260913      -12.8944821883  SYS       24              0.0000000000
       850        24  MOL       H22            -5.8100297843       12.4430257237      -12.2310228879  SYS       24              0.0000000000
       851        24  MOL       C23            -6.4125615563        8.4610893179       -4.1039843432  SYS       24              0.0000000000
       852        24  MOL       H24            -8.3416057303        9.0952101730       -3.7748859452  SYS       24              0.0000000000
       853        24  MOL       H25            -4.5801144362        8.0156787892       -4.7825295283  SYS       24              0.0000000000
       854        24  MOL       H26            -1.7645231566       10.1844325171      -11.2318079678  SYS       24              0.0000000000
       855        24  MOL       C27            -2.7037688935       11.3570047851      -12.5976191091  SYS       24              0.0000000000
       856        24  MOL       C28            -4.0261057514       12.7655258084      -14.1248652870  SYS       24              0.0000000000
       857        24  MOL       H29            -6.2938331445        8.0686006673       -3.2468897700  SYS       24              0.0000000000
       858        24  MOL       C30            -1.6323034783       11.4036248364      -13.5436454562  SYS       24              0.0000000000
       859        24  MOL       C31            -2.9800880608       12.7932295109      -14.9869060712  SYS       24              0.0000000000
       860        24  MOL       H32            -4.8315391972       13.2244806678      -14.3343269225  SYS       24              0.0000000000
       861        24  MOL       C33            -1.7630910887       12.0993929395      -14.6977351701  SYS       24              0.0000000000
       862        24  MOL       H34            -0.8181925069       10.9582998222      -13.3409956889  SYS       24              0.0000000000
       863        24  MOL       H35            -3.0513720461       13.2743279311      -15.8031277301  SYS       24              0.0000000000
       864        24  MOL       H36            -1.0488646821       12.1425701790      -15.3221863650  SYS       24              0.0000000000
       865        25  MOL       C1              6.6391338011       -5.7602852912       14.2826207220  SYS       25              0.0000000000
       866        25  MOL       C2              7.6851293023       -5.1323700626       13.5651982750  SYS       25              0.0000000000
       867        25  MOL       C3              5.4808321759       -6.2538215898       13.5524532422  SYS       25              0.0000000000
       868        25  MOL       C4              6.7162594605       -5.9136308638       15.6747458151  SYS       25              0.0000000000
       869        25  MOL       C5              7.6020909302       -4.9858117369       12.1854442637  SYS       25              0.0000000000
       870        25  MOL       H6              8.4621936838       -4.8146261968       14.0107142164  SYS       25              0.0000000000
       871        25  MOL       C7              5.4119055366       -6.0893656775       12.1583396266  SYS       25              0.0000000000
       872        25  MOL       C8              4.4426089313       -6.8734256772       14.2606849515  SYS       25              0.0000000000
       873        25  MOL       C9              5.6755826267       -6.5346802355       16.3780937397  SYS       25              0.0000000000
       874        25  MOL       H10             7.4833601880       -5.6075503875       16.1427550769  SYS       25              0.0000000000
       875        25  MOL       C11             8.6466220527       -4.3209659838       11.4457666630  SYS       25              0.0000000000
       876        25  MOL       C12             6.4362955431       -5.4512543299       11.4720514573  SYS       25              0.0000000000
       877        25  MOL       H13             4.6438347448       -6.3981213801       11.6911190174  SYS       25              0.0000000000
       878        25  MOL       H14             3.6914409125       -7.2087982467       13.7869410231  SYS       25              0.0000000000
       879        25  MOL       C15             4.5128810741       -7.0257614261       15.6532836647  SYS       25              0.0000000000
       880        25  MOL       C16             5.7393734566       -6.6923545958       17.7732349265  SYS       25              0.0000000000
       881        25  MOL       C17             8.5327206461       -4.1690422414       10.1056648042  SYS       25              0.0000000000
       882        25  MOL       H18             9.4059084822       -3.9805362037       11.9031532315  SYS       25              0.0000000000
       883        25  MOL       C19             6.3752003181       -5.2635122076       10.0482565471  SYS       25              0.0000000000
       884        25  MOL       C20             3.4689262217       -7.6725774276       16.3567510818  SYS       25              0.0000000000
       885        25  MOL       C21             4.7161985229       -7.3406054115       18.4517895331  SYS       25              0.0000000000
       886        25  MOL       H22             6.4936460761       -6.3432739049       18.2345086093  SYS       25              0.0000000000
       887        25  MOL       C23             7.3856750264       -4.6329375695        9.3972171847  SYS       25              0.0000000000
       888        25  MOL       H24             9.2285763877       -3.7318060078        9.6292837240  SYS       25              0.0000000000
       889        25  MOL       H25             5.6023435494       -5.5394829699        9.5689299123  SYS       25              0.0000000000
       890        25  MOL       H26             2.7165311745       -8.0027540028       15.8790903383  SYS       25              0.0000000000
       891        25  MOL       C27             3.5672233356       -7.8388277497       17.7332663720  SYS       25              0.0000000000
       892        25  MOL       C28             4.7686806055       -7.5019058400       19.8791645658  SYS       25              0.0000000000
       893        25  MOL       H29             7.3555343470       -4.5122241034        8.4550081099  SYS       25              0.0000000000
       894        25  MOL       C30             2.5241290752       -8.5049202705       18.4738493952  SYS       25              0.0000000000
       895        25  MOL       C31             3.7553449665       -8.1288193770       20.5292922948  SYS       25              0.0000000000
       896        25  MOL       H32             5.5159915682       -7.1591534996       20.3558915620  SYS       25              0.0000000000
       897        25  MOL       C33             2.6244447882       -8.6268853560       19.8180921647  SYS       25              0.0000000000
       898        25  MOL       H34             1.7742814534       -8.8533990788       18.0070498071  SYS       25              0.0000000000
       899        25  MOL       H35             3.7816144423       -8.1862637136       21.4775792836  SYS       25              0.0000000000
       900        25  MOL       H36             1.9116638031       -9.0378878380       20.2928024951  SYS       25              0.0000000000
       901        26  MOL       C1             -5.6965916881        3.3895232783      -11.0744561387  SYS       26              0.0000000000
       902        26  MOL       C2             -6.7512153918        3.3165631776      -10.1310346113  SYS       26              0.0000000000
       903        26  MOL       C3             -4.4458867904        2.6847186202      -10.8057219773  SYS       26              0.0000000000
       904        26  MOL       C4             -5.8330692755        4.1217837937      -12.2612290161  SYS       26              0.0000000000
       905        26  MOL       C5             -6.5818734119        2.5937898628       -8.9636052547  SYS       26              0.0000000000
       906        26  MOL       H6             -7.5689973428        3.7626610822      -10.3180748072  SYS       26              0.0000000000
       907        26  MOL       C7             -4.3067486039        1.9463703943       -9.6134538372  SYS       26              0.0000000000
       908        26  MOL       C8             -3.3883393233        2.7649316657      -11.7192983315  SYS       26              0.0000000000
       909        26  MOL       C9             -4.7857666729        4.1766928708      -13.1883777624  SYS       26              0.0000000000
       910        26  MOL       H10            -6.6548147644        4.5541422367      -12.4616064450  SYS       26              0.0000000000
       911        26  MOL       C11            -7.6252029879        2.5267620372       -7.9878245022  SYS       26              0.0000000000
       912        26  MOL       C12            -5.3452435376        1.8947520008       -8.6943130960  SYS       26              0.0000000000
       913        26  MOL       H13            -3.4907631120        1.4991653838       -9.4215855270  SYS       26              0.0000000000
       914        26  MOL       H14            -2.5811775825        2.2979749655      -11.5382128282  SYS       26              0.0000000000
       915        26  MOL       C15            -3.5272486692        3.4895830897      -12.9104515495  SYS       26              0.0000000000
       916        26  MOL       C16            -4.9135637187        4.9155055499      -14.3816273586  SYS       26              0.0000000000
       917        26  MOL       C17            -7.4723084311        1.7927861367       -6.8604273447  SYS       26              0.0000000000
       918        26  MOL       H18            -8.4610306647        2.9537127040       -8.1336435695  SYS       26              0.0000000000
       919        26  MOL       C19            -5.2234243990        1.1545693398       -7.4800645341  SYS       26              0.0000000000
       920        26  MOL       C20            -2.4698568736        3.5580108842      -13.8511102169  SYS       26              0.0000000000
       921        26  MOL       C21            -3.8731258623        4.9561274318      -15.2991211230  SYS       26              0.0000000000
       922        26  MOL       H22            -5.7285938651        5.3598241121      -14.5839759914  SYS       26              0.0000000000
       923        26  MOL       C23            -6.2439085338        1.1121901237       -6.5885203962  SYS       26              0.0000000000
       924        26  MOL       H24            -8.1705411836        1.7308089870       -6.2196834138  SYS       26              0.0000000000
       925        26  MOL       H25            -4.4237923904        0.6873005343       -7.2667917316  SYS       26              0.0000000000
       926        26  MOL       H26            -1.6673277197        3.0941838394      -13.6423852400  SYS       26              0.0000000000
       927        26  MOL       C27            -2.6322268230        4.2649505645      -15.0291770871  SYS       26              0.0000000000
       928        26  MOL       C28            -4.0126111030        5.6580254009      -16.5340271747  SYS       26              0.0000000000
       929        26  MOL       H29            -6.1871517542        0.5823596438       -5.8018735793  SYS       26              0.0000000000
       930        26  MOL       C30            -1.5759588657        4.3369553206      -15.9905774886  SYS       26              0.0000000000
       931        26  MOL       C31            -2.9774385532        5.7131473628      -17.4077629354  SYS       26              0.0000000000
       932        26  MOL       H32            -4.8423649792        6.0858873165      -16.7120144271  SYS       26              0.0000000000
       933        26  MOL       C33            -1.7410589495        5.0496409568      -17.1298504437  SYS       26              0.0000000000
       934        26  MOL       H34            -0.7650506992        3.8818710247      -15.7969691217  SYS       26              0.0000000000
       935        26  MOL       H35            -3.0623469997        6.1988523479      -18.2199427898  SYS       26              0.0000000000
       936        26  MOL       H36            -1.0337514210        5.0946872192      -17.7619974384  SYS       26              0.0000000000
       937        27  MOL       C1             -3.0358781370       -3.3932639548       15.7200395305  SYS       27              0.0000000000
       938        27  MOL       C2             -1.9598411613       -3.3139751566       14.8016408083  SYS       27              0.0000000000
       939        27  MOL       C3             -4.2765728393       -2.6796447824       15.4290846904  SYS       27              0.0000000000
       940        27  MOL       C4             -2.9220098265       -4.1645438294       16.8842658209  SYS       27              0.0000000000
       941        27  MOL       C5             -2.0953575959       -2.5707971901       13.6426364604  SYS       27              0.0000000000
       942        27  MOL       H6             -1.1526143100       -3.7795748916       14.9869955793  SYS       27              0.0000000000
       943        27  MOL       C7             -4.3940059150       -1.9470674175       14.2309358139  SYS       27              0.0000000000
       944        27  MOL       C8             -5.3374313828       -2.7471503468       16.3398451854  SYS       27              0.0000000000
       945        27  MOL       C9             -3.9937064349       -4.2367987055       17.7818782906  SYS       27              0.0000000000
       946        27  MOL       H10            -2.1146166041       -4.6292341803       17.0700873968  SYS       27              0.0000000000
       947        27  MOL       C11            -1.0243286059       -2.4843410616       12.6989205867  SYS       27              0.0000000000
       948        27  MOL       C12            -3.3346039480       -1.8919909715       13.3361788950  SYS       27              0.0000000000
       949        27  MOL       H13            -5.1979353105       -1.4807709247       14.0336968736  SYS       27              0.0000000000
       950        27  MOL       H14            -6.1499633584       -2.2936962034       16.1487386103  SYS       27              0.0000000000
       951        27  MOL       C15            -5.2264264005       -3.4997771536       17.5164896788  SYS       27              0.0000000000
       952        27  MOL       C16            -3.9104711060       -5.0224397083       18.9488662728  SYS       27              0.0000000000
       953        27  MOL       C17            -1.1568024084       -1.7710804931       11.5557531582  SYS       27              0.0000000000
       954        27  MOL       H18            -0.2064008094       -2.9307420017       12.8829811455  SYS       27              0.0000000000
       955        27  MOL       C19            -3.4309656209       -1.1533608987       12.1187020429  SYS       27              0.0000000000
       956        27  MOL       C20            -6.3038492092       -3.5929257904       18.4319578219  SYS       27              0.0000000000
       957        27  MOL       C21            -4.9700402162       -5.0843473170       19.8429784712  SYS       27              0.0000000000
       958        27  MOL       H22            -3.1021478540       -5.4871128797       19.1314325815  SYS       27              0.0000000000
       959        27  MOL       C23            -2.3778234908       -1.0838538223       11.2677641868  SYS       27              0.0000000000
       960        27  MOL       H24            -0.4246488991       -1.7123173147       10.9537389920  SYS       27              0.0000000000
       961        27  MOL       H25            -4.2400768323       -0.6995084464       11.9123194539  SYS       27              0.0000000000
       962        27  MOL       H26            -7.1262033926       -3.1455540753       18.2696407561  SYS       27              0.0000000000
       963        27  MOL       C27            -6.1919623062       -4.3578542552       19.5792742666  SYS       27              0.0000000000
       964        27  MOL       C28            -4.8754367256       -5.8606382277       21.0369351063  SYS       27              0.0000000000
       965        27  MOL       H29            -2.4250260527       -0.5764084958       10.4658751349  SYS       27              0.0000000000
       966        27  MOL       C30            -7.2711492072       -4.4644498760       20.5115673631  SYS       27              0.0000000000
       967        27  MOL       C31            -5.9261604838       -5.9391832634       21.8900734755  SYS       27              0.0000000000
       968        27  MOL       H32            -4.0740355962       -6.3354182793       21.2255535223  SYS       27              0.0000000000
       969        27  MOL       C33            -7.1367078716       -5.2253589074       21.6233518252  SYS       27              0.0000000000
       970        27  MOL       H34            -8.0875197103       -4.0088189342       20.3439439287  SYS       27              0.0000000000
       971        27  MOL       H35            -5.8643048745       -6.4685607791       22.6766408419  SYS       27              0.0000000000
       972        27  MOL       H36            -7.8518646792       -5.2749205041       22.2462621857  SYS       27              0.0000000000
       973        28  MOL       C1             -6.2957695835       -4.5549070008      -11.6789693285  SYS       28              0.0000000000
       974        28  MOL       C2             -7.3711948398       -4.6196726186      -10.7587169542  SYS       28              0.0000000000
       975        28  MOL       C3             -5.0533087752       -5.2597639052      -11.3745054212  SYS       28              0.0000000000
       976        28  MOL       C4             -6.4099209332       -3.8126464891      -12.8618811150  SYS       28              0.0000000000
       977        28  MOL       C5             -7.2430668414       -5.3339694122       -9.5808661237  SYS       28              0.0000000000
       978        28  MOL       H6             -8.1821822084       -4.1678853470      -10.9610593450  SYS       28              0.0000000000
       979        28  MOL       C7             -4.9555523256       -6.0014926369      -10.1802261331  SYS       28              0.0000000000
       980        28  MOL       C8             -3.9828220631       -5.2038464029      -12.2747242626  SYS       28              0.0000000000
       981        28  MOL       C9             -5.3319458910       -3.7474785510      -13.7524907275  SYS       28              0.0000000000
       982        28  MOL       H10            -7.2146677955       -3.3524789694      -13.0691947351  SYS       28              0.0000000000
       983        28  MOL       C11            -8.3025107902       -5.3578782814       -8.6205618517  SYS       28              0.0000000000
       984        28  MOL       C12            -6.0151601705       -6.0375191454       -9.2847434742  SYS       28              0.0000000000
       985        28  MOL       H13            -4.1420950233       -6.4471410778       -9.9745011300  SYS       28              0.0000000000
       986        28  MOL       H14            -3.1752833462       -5.6697318524      -12.0925634454  SYS       28              0.0000000000
       987        28  MOL       C15            -4.0954090842       -4.4685055558      -13.4620993008  SYS       28              0.0000000000
       988        28  MOL       C16            -5.4209486169       -2.9815140288      -14.9320659568  SYS       28              0.0000000000
       989        28  MOL       C17            -8.1499386826       -6.0396929825       -7.4608324943  SYS       28              0.0000000000
       990        28  MOL       H18            -9.1189919723       -4.9091005565       -8.8052643195  SYS       28              0.0000000000
       991        28  MOL       C19            -5.9115325388       -6.7427522950       -8.0482090586  SYS       28              0.0000000000
       992        28  MOL       C20            -3.0229605180       -4.3911564347      -14.3848504507  SYS       28              0.0000000000
       993        28  MOL       C21            -4.3514195498       -2.8957600005      -15.8122419029  SYS       28              0.0000000000
       994        28  MOL       H22            -6.2151081366       -2.5037345124      -15.1410527590  SYS       28              0.0000000000
       995        28  MOL       C23            -6.9436155695       -6.7508941512       -7.1691338951  SYS       28              0.0000000000
       996        28  MOL       H24            -8.8514056982       -6.0333859913       -6.8206550372  SYS       28              0.0000000000
       997        28  MOL       H25            -5.1207610958       -7.2296563905       -7.8461157620  SYS       28              0.0000000000
       998        28  MOL       H26            -2.2115505016       -4.8543123503      -14.2120642600  SYS       28              0.0000000000
       999        28  MOL       C27            -3.1371889404       -3.6298080865      -15.5343154653  SYS       28              0.0000000000
      1000        28  MOL       C28            -4.4090411464       -2.0811857882      -16.9828222927  SYS       28              0.0000000000
      1001        28  MOL       H29            -6.8871074551       -7.2130725624       -6.3409111943  SYS       28              0.0000000000
      1002        28  MOL       C30            -2.0613373840       -3.5460992534      -16.4727789284  SYS       28              0.0000000000
      1003        28  MOL       C31            -3.3597213028       -2.0205404211      -17.8391428054  SYS       28              0.0000000000
      1004        28  MOL       H32            -5.1908207231       -1.5732909868      -17.1674850622  SYS       28              0.0000000000
      1005        28  MOL       C33            -2.1672837834       -2.7645176867      -17.5732457984  SYS       28              0.0000000000
      1006        28  MOL       H34            -1.2628821148       -4.0315673013      -16.3026380256  SYS       28              0.0000000000
      1007        28  MOL       H35            -3.4112000622       -1.4641871475      -18.6076321450  SYS       28              0.0000000000
      1008        28  MOL       H36            -1.4472805557       -2.6786625613      -18.1865541858  SYS       28              0.0000000000
      1009        29  MOL       C1             -5.1145332717      -10.7914827763       15.1082555560  SYS       29              0.0000000000
      1010        29  MOL       C2             -6.1855788347      -10.8342315090       16.0348797763  SYS       29              0.0000000000
      1011        29  MOL       C3             -3.8833692327      -11.5209487382       15.4003940594  SYS       29              0.0000000000
      1012        29  MOL       C4             -5.2151048135      -10.0189730607       13.9436201639  SYS       29              0.0000000000
      1013        29  MOL       C5             -6.0807826122      -11.5888999083       17.1896363004  SYS       29              0.0000000000
      1014        29  MOL       H6             -6.9942270176      -10.3697158576       15.8530336349  SYS       29              0.0000000000
      1015        29  MOL       C7             -3.7982058945      -12.2611932170       16.5965571621  SYS       29              0.0000000000
      1016        29  MOL       C8             -2.8322865141      -11.4991761525       14.4761572921  SYS       29              0.0000000000
      1017        29  MOL       C9             -4.1466229537       -9.9658769907       13.0408522787  SYS       29              0.0000000000
      1018        29  MOL       H10            -5.9932402827       -9.5017144928       13.7724496041  SYS       29              0.0000000000
      1019        29  MOL       C11            -7.1595804154      -11.6560558332       18.1260458204  SYS       29              0.0000000000
      1020        29  MOL       C12            -4.8569698466      -12.2964571939       17.4930677482  SYS       29              0.0000000000
      1021        29  MOL       H13            -3.0119693655      -12.7572769122       16.7924427895  SYS       29              0.0000000000
      1022        29  MOL       H14            -2.0506244402      -12.0068970467       14.6593907212  SYS       29              0.0000000000
      1023        29  MOL       C15            -2.9373182121      -10.7422525698       13.3017227425  SYS       29              0.0000000000
      1024        29  MOL       C16            -4.1887194480       -9.1696267310       11.8788564682  SYS       29              0.0000000000
      1025        29  MOL       C17            -7.0569726846      -12.4000388965       19.2525814700  SYS       29              0.0000000000
      1026        29  MOL       H18            -7.9768526485      -11.2181469112       17.9199879609  SYS       29              0.0000000000
      1027        29  MOL       C19            -4.7754804674      -13.0358639237       18.7111592919  SYS       29              0.0000000000
      1028        29  MOL       C20            -1.8606589409      -10.7092777954       12.3812250651  SYS       29              0.0000000000
      1029        29  MOL       C21            -3.1272763252       -9.1308899776       10.9856634132  SYS       29              0.0000000000
      1030        29  MOL       H22            -4.9589768615       -8.6446082759       11.6952884137  SYS       29              0.0000000000
      1031        29  MOL       C23            -5.8459733691      -13.1049263311       19.5402009944  SYS       29              0.0000000000
      1032        29  MOL       H24            -7.7866783312      -12.4834843304       19.8546524437  SYS       29              0.0000000000
      1033        29  MOL       H25            -3.9720901263      -13.4965026410       18.9247306028  SYS       29              0.0000000000
      1034        29  MOL       H26            -1.0831707155      -11.2185158380       12.5785658297  SYS       29              0.0000000000
      1035        29  MOL       C27            -1.9473908442       -9.9254134760       11.2445617188  SYS       29              0.0000000000
      1036        29  MOL       C28            -3.1598755367       -8.2957800995        9.8286678966  SYS       29              0.0000000000
      1037        29  MOL       H29            -5.8046263489      -13.6346114117       20.3279059086  SYS       29              0.0000000000
      1038        29  MOL       C30            -0.8680778437       -9.8556395792       10.3089376168  SYS       29              0.0000000000
      1039        29  MOL       C31            -2.1077562857       -8.2737301198        8.9739201601  SYS       29              0.0000000000
      1040        29  MOL       H32            -3.9180436017       -7.7517603673        9.6484999476  SYS       29              0.0000000000
      1041        29  MOL       C33            -0.9396170062       -9.0639401403        9.2129376800  SYS       29              0.0000000000
      1042        29  MOL       H34            -0.0810425410      -10.3614139868       10.4730279866  SYS       29              0.0000000000
      1043        29  MOL       H35            -2.1507905490       -7.7190372022        8.2037132321  SYS       29              0.0000000000
      1044        29  MOL       H36            -0.2213939853       -9.0367162200        8.5921821089  SYS       29              0.0000000000
      1045        30  MOL       C1             -3.3441654896        9.5429547232        4.7197907596  SYS       30              0.0000000000
      1046        30  MOL       C2             -4.4144745755        9.5434859849        5.6482500632  SYS       30              0.0000000000
      1047        30  MOL       C3             -2.1383029306        8.7727973038        5.0130200628  SYS       30              0.0000000000
      1048        30  MOL       C4             -3.4133049897       10.3151666511        3.5526703887  SYS       30              0.0000000000
      1049        30  MOL       C5             -4.3275041306        8.7940713666        6.8078979166  SYS       30              0.0000000000
      1050        30  MOL       H6             -5.1968154856       10.0506675342        5.4653176428  SYS       30              0.0000000000
      1051        30  MOL       C7             -2.0832321441        8.0052124785        6.1936138109  SYS       30              0.0000000000
      1052        30  MOL       C8             -1.0733678028        8.7813103128        4.1045580477  SYS       30              0.0000000000
      1053        30  MOL       C9             -2.3445800693       10.3311695066        2.6487713415  SYS       30              0.0000000000
      1054        30  MOL       H10            -4.2071392648       10.8003838600        3.3609883605  SYS       30              0.0000000000
      1055        30  MOL       C11            -5.4227254673        8.7582116301        7.7268003665  SYS       30              0.0000000000
      1056        30  MOL       C12            -3.1407828804        8.0186227312        7.0921473339  SYS       30              0.0000000000
      1057        30  MOL       H13            -1.3012653061        7.4919025988        6.3599836522  SYS       30              0.0000000000
      1058        30  MOL       H14            -0.2844418762        8.2830619906        4.2825891867  SYS       30              0.0000000000
      1059        30  MOL       C15            -1.1489385205        9.5406598793        2.9294245307  SYS       30              0.0000000000
      1060        30  MOL       C16            -2.4230754395       11.0725931637        1.4528824278  SYS       30              0.0000000000
      1061        30  MOL       C17            -5.3362840736        8.0135298999        8.8542305076  SYS       30              0.0000000000
      1062        30  MOL       H18            -6.2006883524        9.2771376941        7.5605251187  SYS       30              0.0000000000
      1063        30  MOL       C19            -3.0978685265        7.2489139003        8.2933203088  SYS       30              0.0000000000
      1064        30  MOL       C20            -0.0693459603        9.5702197064        2.0122524534  SYS       30              0.0000000000
      1065        30  MOL       C21            -1.3595707565       11.0664933783        0.5613239847  SYS       30              0.0000000000
      1066        30  MOL       H22            -3.2065793951       11.5709929493        1.2519911685  SYS       30              0.0000000000
      1067        30  MOL       C23            -4.1569824961        7.2559693771        9.1396433173  SYS       30              0.0000000000
      1068        30  MOL       H24            -6.0669197425        7.9963628960        9.4606954627  SYS       30              0.0000000000
      1069        30  MOL       H25            -2.3262972013        6.7297241879        8.4891684808  SYS       30              0.0000000000
      1070        30  MOL       H26             0.7017805991        9.0401656083        2.1770589081  SYS       30              0.0000000000
      1071        30  MOL       C27            -0.1607544318       10.3104340872        0.8470501437  SYS       30              0.0000000000
      1072        30  MOL       C28            -1.4422893862       11.8088844780       -0.6548679937  SYS       30              0.0000000000
      1073        30  MOL       H29            -4.1162570629        6.7561799739        9.9466791804  SYS       30              0.0000000000
      1074        30  MOL       C30             0.8989019999       10.3560315243       -0.1122342419  SYS       30              0.0000000000
      1075        30  MOL       C31            -0.4130362714       11.8045646609       -1.5372818314  SYS       30              0.0000000000
      1076        30  MOL       H32            -2.2205569429       12.3226226813       -0.8381968017  SYS       30              0.0000000000
      1077        30  MOL       C33             0.7799332059       11.0660199773       -1.2589183920  SYS       30              0.0000000000
      1078        30  MOL       H34             1.7010350412        9.8758234578        0.0555178551  SYS       30              0.0000000000
      1079        30  MOL       H35            -0.4839753839       12.3010096538       -2.3442916851  SYS       30              0.0000000000
      1080        30  MOL       H36             1.4716069891       11.0964743524       -1.9089821097  SYS       30              0.0000000000
      1081        31  MOL       C1             -3.7660934410        1.7722007057        3.7610710926  SYS       31              0.0000000000
      1082        31  MOL       C2             -4.8329880002        1.7205721749        4.6920216850  SYS       31              0.0000000000
      1083        31  MOL       C3             -2.5152022356        1.0842006436        4.0695471908  SYS       31              0.0000000000
      1084        31  MOL       C4             -3.8897128714        2.4784404191        2.5572417191  SYS       31              0.0000000000
      1085        31  MOL       C5             -4.7021393895        0.9993257317        5.8653296081  SYS       31              0.0000000000
      1086        31  MOL       H6             -5.6423506965        2.1724671974        4.4835088331  SYS       31              0.0000000000
      1087        31  MOL       C7             -2.4034640913        0.3560656967        5.2709442701  SYS       31              0.0000000000
      1088        31  MOL       C8             -1.4517655827        1.1400324485        3.1610055970  SYS       31              0.0000000000
      1089        31  MOL       C9             -2.8308845554        2.5310780014        1.6431441157  SYS       31              0.0000000000
      1090        31  MOL       H10            -4.7140606103        2.9103251574        2.3667765931  SYS       31              0.0000000000
      1091        31  MOL       C11            -5.7806905446        0.9438034596        6.8027847245  SYS       31              0.0000000000
      1092        31  MOL       C12            -3.4708051145        0.2995547799        6.1561253503  SYS       31              0.0000000000
      1093        31  MOL       H13            -1.6041230476       -0.1180277019        5.4682446450  SYS       31              0.0000000000
      1094        31  MOL       H14            -0.6289072309        0.7162809165        3.3747563100  SYS       31              0.0000000000
      1095        31  MOL       C15            -1.5776292868        1.8514533009        1.9604639775  SYS       31              0.0000000000
      1096        31  MOL       C16            -2.9515701530        3.2371827875        0.4295247867  SYS       31              0.0000000000
      1097        31  MOL       C17            -5.6570954536        0.2278531448        7.9452649730  SYS       31              0.0000000000
      1098        31  MOL       H18            -6.5807476596        1.4222715386        6.6207548379  SYS       31              0.0000000000
      1099        31  MOL       C19            -3.4014186119       -0.4382879709        7.3759136239  SYS       31              0.0000000000
      1100        31  MOL       C20            -0.5101945242        1.9105936510        1.0305801419  SYS       31              0.0000000000
      1101        31  MOL       C21            -1.8880617415        3.2893595800       -0.4605220204  SYS       31              0.0000000000
      1102        31  MOL       H22            -3.7703733629        3.6740535986        0.2261942883  SYS       31              0.0000000000
      1103        31  MOL       C23            -4.4449158823       -0.4717105946        8.2408015882  SYS       31              0.0000000000
      1104        31  MOL       H24            -6.3675364135        0.2015978724        8.5749531750  SYS       31              0.0000000000
      1105        31  MOL       H25            -2.6098778213       -0.9223159321        7.5818672211  SYS       31              0.0000000000
      1106        31  MOL       H26             0.3152469167        1.4845680689        1.2303382896  SYS       31              0.0000000000
      1107        31  MOL       C27            -0.6462775339        2.6163776749       -0.1515025917  SYS       31              0.0000000000
      1108        31  MOL       C28            -1.9861297788        3.9916078508       -1.6992067560  SYS       31              0.0000000000
      1109        31  MOL       H29            -4.3947303570       -0.9547007413        9.0574758289  SYS       31              0.0000000000
      1110        31  MOL       C30             0.4365562720        2.6800551667       -1.0834862505  SYS       31              0.0000000000
      1111        31  MOL       C31            -0.9292214291        4.0173743118       -2.5479208702  SYS       31              0.0000000000
      1112        31  MOL       H32            -2.8097198768        4.4189809655       -1.9048480632  SYS       31              0.0000000000
      1113        31  MOL       C33             0.3041932830        3.3579524706       -2.2479848572  SYS       31              0.0000000000
      1114        31  MOL       H34             1.2651102822        2.2754736766       -0.8555168661  SYS       31              0.0000000000
      1115        31  MOL       H35            -0.9919990338        4.5068119054       -3.3598720430  SYS       31              0.0000000000
      1116        31  MOL       H36             1.0360180060        3.4080243204       -2.8511832599  SYS       31              0.0000000000
      1117        32  MOL       C1              2.9841484002       -8.3933502719      -12.1361250607  SYS       32              0.0000000000
      1118        32  MOL       C2              1.9415303104       -9.0255898182      -11.4175850372  SYS       32              0.0000000000
      1119        32  MOL       C3              4.1477693265       -7.8988738374      -11.4151086413  SYS       32              0.0000000000
      1120        32  MOL       C4              2.9032520694       -8.2677588294      -13.5308143023  SYS       32              0.0000000000
      1121        32  MOL       C5              2.0420737731       -9.1856378320      -10.0404969894  SYS       32              0.0000000000
      1122        32  MOL       H6              1.1938134311       -9.3624733455      -11.8979012138  SYS       32              0.0000000000
      1123        32  MOL       C7              4.2179872838       -8.0611040814      -10.0207987085  SYS       32              0.0000000000
      1124        32  MOL       C8              5.1801819839       -7.2758789143      -12.1288385029  SYS       32              0.0000000000
      1125        32  MOL       C9              3.9387723765       -7.6460898314      -14.2411904335  SYS       32              0.0000000000
      1126        32  MOL       H10             2.1488772904       -8.6026987191      -13.9997443789  SYS       32              0.0000000000
      1127        32  MOL       C11             0.9905624642       -9.8333109261       -9.2954925433  SYS       32              0.0000000000
      1128        32  MOL       C12             3.2014306861       -8.7039979570       -9.3273633640  SYS       32              0.0000000000
      1129        32  MOL       H13             4.9859023449       -7.7487809291       -9.5556980418  SYS       32              0.0000000000
      1130        32  MOL       H14             5.9318749859       -6.9267663653      -11.6659783494  SYS       32              0.0000000000
      1131        32  MOL       C15             5.0944517116       -7.1315704253      -13.5214263496  SYS       32              0.0000000000
      1132        32  MOL       C16             3.8612526659       -7.5119451082      -15.6380960469  SYS       32              0.0000000000
      1133        32  MOL       C17             1.1144211445      -10.0019925866       -7.9582816883  SYS       32              0.0000000000
      1134        32  MOL       H18             0.2256328215      -10.1563238978       -9.7560965516  SYS       32              0.0000000000
      1135        32  MOL       C19             3.2722125574       -8.8978530914       -7.9048368120  SYS       32              0.0000000000
      1136        32  MOL       C20             6.1300956082       -6.5029616823      -14.2531174376  SYS       32              0.0000000000
      1137        32  MOL       C21             4.8750815309       -6.8744902737      -16.3404882349  SYS       32              0.0000000000
      1138        32  MOL       H22             3.0962886465       -7.8403570606      -16.0969354110  SYS       32              0.0000000000
      1139        32  MOL       C23             2.2560166627       -9.5191006319       -7.2537353153  SYS       32              0.0000000000
      1140        32  MOL       H24             0.4315406434      -10.4498305227       -7.4730548601  SYS       32              0.0000000000
      1141        32  MOL       H25             4.0251082533       -8.5664338040       -7.4288842970  SYS       32              0.0000000000
      1142        32  MOL       H26             6.8721604281       -6.1468340114      -13.7779463643  SYS       32              0.0000000000
      1143        32  MOL       C27             6.0213352472       -6.3571817960      -15.6311650582  SYS       32              0.0000000000
      1144        32  MOL       C28             4.8026588704       -6.7253367489      -17.7683117063  SYS       32              0.0000000000
      1145        32  MOL       H29             2.3152133948       -9.6385927215       -6.3127488493  SYS       32              0.0000000000
      1146        32  MOL       C30             7.0481989256       -5.6996899511      -16.4015179360  SYS       32              0.0000000000
      1147        32  MOL       C31             5.8051311443       -6.1025547207      -18.4389290705  SYS       32              0.0000000000
      1148        32  MOL       H32             4.0271794643       -7.0509917063      -18.2108069154  SYS       32              0.0000000000
      1149        32  MOL       C33             6.9417173184       -5.5912356933      -17.7464442122  SYS       32              0.0000000000
      1150        32  MOL       H34             7.7944335809       -5.3399866383      -15.9374509610  SYS       32              0.0000000000
      1151        32  MOL       H35             5.7598071663       -5.9819866781      -19.3805485448  SYS       32              0.0000000000
      1152        32  MOL       H36             7.5981272695       -5.1253269939      -18.2508098836  SYS       32              0.0000000000
      1153        33  MOL       C1             -2.5892201215        4.2276978059       16.3228941816  SYS       33              0.0000000000
      1154        33  MOL       C2             -1.5305318592        4.3017402999       15.3841208420  SYS       33              0.0000000000
      1155        33  MOL       C3             -3.8269202011        4.9528202376       16.0480735700  SYS       33              0.0000000000
      1156        33  MOL       C4             -2.4504438376        3.4919061348       17.5072139082  SYS       33              0.0000000000
      1157        33  MOL       C5             -1.6731494396        5.0421751197       14.2242131835  SYS       33              0.0000000000
      1158        33  MOL       H6             -0.7018091598        3.8906819700       15.6009258958  SYS       33              0.0000000000
      1159        33  MOL       C7             -3.9594285455        5.6870327948       14.8525007725  SYS       33              0.0000000000
      1160        33  MOL       C8             -4.8695577873        4.9043658066       16.9808230347  SYS       33              0.0000000000
      1161        33  MOL       C9             -3.4969220223        3.4361645071       18.4352434474  SYS       33              0.0000000000
      1162        33  MOL       H10            -1.6348530312        3.0401940168       17.6891984788  SYS       33              0.0000000000
      1163        33  MOL       C11            -0.6036365748        5.1643073432       13.2827232140  SYS       33              0.0000000000
      1164        33  MOL       C12            -2.9092723201        5.7388986915       13.9467206013  SYS       33              0.0000000000
      1165        33  MOL       H13            -4.7791950273        6.1380416451       14.6875400945  SYS       33              0.0000000000
      1166        33  MOL       H14            -5.6801354339        5.3695448668       16.8107556489  SYS       33              0.0000000000
      1167        33  MOL       C15            -4.7338681563        4.1632284564       18.1621634737  SYS       33              0.0000000000
      1168        33  MOL       C16            -3.3684436710        2.7059554682       19.6337045147  SYS       33              0.0000000000
      1169        33  MOL       C17            -0.7393534527        5.9147409524       12.1639953450  SYS       33              0.0000000000
      1170        33  MOL       H18             0.2202313851        4.7215243805       13.4480798035  SYS       33              0.0000000000
      1171        33  MOL       C19            -3.0206009517        6.5144746964       12.7537421272  SYS       33              0.0000000000
      1172        33  MOL       C20            -5.7868254466        4.1110514351       19.1088191678  SYS       33              0.0000000000
      1173        33  MOL       C21            -4.4188934984        2.6585875206       20.5393906161  SYS       33              0.0000000000
      1174        33  MOL       H22            -2.5563342357        2.2546593633       19.8323201836  SYS       33              0.0000000000
      1175        33  MOL       C23            -1.9671567191        6.6013373813       11.9047751445  SYS       33              0.0000000000
      1176        33  MOL       H24            -0.0166863237        5.9978100054       11.5534425776  SYS       33              0.0000000000
      1177        33  MOL       H25            -3.8092240678        7.0277781122       12.6202132583  SYS       33              0.0000000000
      1178        33  MOL       H26            -6.5860662572        4.5999900008       18.9509968270  SYS       33              0.0000000000
      1179        33  MOL       C27            -5.6470410993        3.3724843214       20.2702614678  SYS       33              0.0000000000
      1180        33  MOL       C28            -4.3060887972        1.9333135409       21.7634668394  SYS       33              0.0000000000
      1181        33  MOL       H29            -2.0348503406        7.1394215963       11.1246227013  SYS       33              0.0000000000
      1182        33  MOL       C30            -6.7058219707        3.2967808916       21.2286087278  SYS       33              0.0000000000
      1183        33  MOL       C31            -5.3363157261        1.9057053683       22.6443215836  SYS       33              0.0000000000
      1184        33  MOL       H32            -3.4980135894        1.4742728534       21.9622956118  SYS       33              0.0000000000
      1185        33  MOL       C33            -6.5674362219        2.5799064444       22.3688113983  SYS       33              0.0000000000
      1186        33  MOL       H34            -7.5280982793        3.7437873218       21.0667294731  SYS       33              0.0000000000
      1187        33  MOL       H35            -5.2418781791        1.4361375359       23.4648960733  SYS       33              0.0000000000
      1188        33  MOL       H36            -7.2728218884        2.5486704497       23.0039320974  SYS       33              0.0000000000
      1189        34  MOL       C1             -3.7656756699       -5.5849685568        2.0725220919  SYS       34              0.0000000000
      1190        34  MOL       C2             -4.8546875618       -5.6643670461        2.9754880327  SYS       34              0.0000000000
      1191        34  MOL       C3             -2.5323118112       -6.2982641060        2.3938528373  SYS       34              0.0000000000
      1192        34  MOL       C4             -3.8684029911       -4.8418959846        0.8890730200  SYS       34              0.0000000000
      1193        34  MOL       C5             -4.7668076762       -6.4093700580        4.1379065937  SYS       34              0.0000000000
      1194        34  MOL       H6             -5.6379307477       -5.1601903407        2.7881630314  SYS       34              0.0000000000
      1195        34  MOL       C7             -2.4662526081       -7.0586689995        3.5785221728  SYS       34              0.0000000000
      1196        34  MOL       C8             -1.4437774463       -6.2186997052        1.5173683966  SYS       34              0.0000000000
      1197        34  MOL       C9             -2.7848513338       -4.7979508820        0.0039475035  SYS       34              0.0000000000
      1198        34  MOL       H10            -4.6889447565       -4.4099204621        0.6830173364  SYS       34              0.0000000000
      1199        34  MOL       C11            -5.8535085439       -6.4966815210        5.0634525639  SYS       34              0.0000000000
      1200        34  MOL       C12            -3.5558525096       -7.1417268104        4.4339924190  SYS       34              0.0000000000
      1201        34  MOL       H13            -1.6823967270       -7.5526401808        3.7887613748  SYS       34              0.0000000000
      1202        34  MOL       H14            -0.6453503700       -6.6884349320        1.7276387360  SYS       34              0.0000000000
      1203        34  MOL       C15            -1.5418479603       -5.4963864741        0.3207451260  SYS       34              0.0000000000
      1204        34  MOL       C16            -2.9063820693       -4.1083427278       -1.2190372602  SYS       34              0.0000000000
      1205        34  MOL       C17            -5.7809333360       -7.2860066693        6.1610956601  SYS       34              0.0000000000
      1206        34  MOL       H18            -6.6495129978       -6.0131037513        4.8772069753  SYS       34              0.0000000000
      1207        34  MOL       C19            -3.5187322982       -7.9718295087        5.5944498474  SYS       34              0.0000000000
      1208        34  MOL       C20            -0.4778440288       -5.4427014696       -0.6133919380  SYS       34              0.0000000000
      1209        34  MOL       C21            -1.8572613007       -4.1005501644       -2.1274648943  SYS       34              0.0000000000
      1210        34  MOL       H22            -3.7176282099       -3.6524725643       -1.4106101893  SYS       34              0.0000000000
      1211        34  MOL       C23            -4.5804540836       -8.0134069470        6.4365026865  SYS       34              0.0000000000
      1212        34  MOL       H24            -6.5230173574       -7.3375074966        6.7515039074  SYS       34              0.0000000000
      1213        34  MOL       H25            -2.7289273338       -8.4665648004        5.7806805745  SYS       34              0.0000000000
      1214        34  MOL       H26             0.3246199565       -5.9130297133       -0.4194909795  SYS       34              0.0000000000
      1215        34  MOL       C27            -0.6080245987       -4.7535769319       -1.8059227145  SYS       34              0.0000000000
      1216        34  MOL       C28            -1.9653059783       -3.4458723891       -3.3911235532  SYS       34              0.0000000000
      1217        34  MOL       H29            -4.5616768467       -8.5593446242        7.2139049910  SYS       34              0.0000000000
      1218        34  MOL       C30             0.4579762362       -4.7165179310       -2.7585224543  SYS       34              0.0000000000
      1219        34  MOL       C31            -0.9232024935       -3.4194916564       -4.2579333370  SYS       34              0.0000000000
      1220        34  MOL       H32            -2.7918867877       -3.0396636268       -3.6256344964  SYS       34              0.0000000000
      1221        34  MOL       C33             0.3067582693       -4.0783830609       -3.9430218141  SYS       34              0.0000000000
      1222        34  MOL       H34             1.2773308811       -5.1555874572       -2.5634996686  SYS       34              0.0000000000
      1223        34  MOL       H35            -1.0159618382       -2.9697617487       -5.0897347596  SYS       34              0.0000000000
      1224        34  MOL       H36             1.0120693158       -4.0663947628       -4.5788799248  SYS       34              0.0000000000
      1225        35  MOL       C1              6.5953873692        1.6222369735       16.4233266150  SYS       35              0.0000000000
      1226        35  MOL       C2              7.6494037602        2.2561324355       15.7231087343  SYS       35              0.0000000000
      1227        35  MOL       C3              5.4178736107        1.1874377514       15.6865795306  SYS       35              0.0000000000
      1228        35  MOL       C4              6.6836820669        1.4231433500       17.8089821570  SYS       35              0.0000000000
      1229        35  MOL       C5              7.5676030464        2.4526296556       14.3495027751  SYS       35              0.0000000000
      1230        35  MOL       H6              8.4199503142        2.5618033142       16.1879721479  SYS       35              0.0000000000
      1231        35  MOL       C7              5.3509331271        1.3890881683       14.2972611790  SYS       35              0.0000000000
      1232        35  MOL       C8              4.3738409785        0.5545485770       16.3742248170  SYS       35              0.0000000000
      1233        35  MOL       C9              5.6502092080        0.7671345050       18.4908876801  SYS       35              0.0000000000
      1234        35  MOL       H10             7.4528588300        1.7202791505       18.2793425251  SYS       35              0.0000000000
      1235        35  MOL       C11             8.6296748092        3.0890273972       13.6097801392  SYS       35              0.0000000000
      1236        35  MOL       C12             6.3950224278        2.0149840671       13.6296652800  SYS       35              0.0000000000
      1237        35  MOL       H13             4.5845666946        1.0865494232       13.8232245545  SYS       35              0.0000000000
      1238        35  MOL       H14             3.5994624831        0.2521866941       15.9158835684  SYS       35              0.0000000000
      1239        35  MOL       C15             4.4768888622        0.3219813190       17.7536337969  SYS       35              0.0000000000
      1240        35  MOL       C16             5.7234936726        0.5459934170       19.8769163271  SYS       35              0.0000000000
      1241        35  MOL       C17             8.5309925425        3.2914073882       12.2751522906  SYS       35              0.0000000000
      1242        35  MOL       H18             9.4139528320        3.3568521973       14.0732331029  SYS       35              0.0000000000
      1243        35  MOL       C19             6.3520732588        2.2271566524       12.2086410579  SYS       35              0.0000000000
      1244        35  MOL       C20             3.4486536803       -0.3666077013       18.4404064317  SYS       35              0.0000000000
      1245        35  MOL       C21             4.7011083965       -0.1148556438       20.5444185998  SYS       35              0.0000000000
      1246        35  MOL       H22             6.4846319564        0.8143361489       20.3791300403  SYS       35              0.0000000000
      1247        35  MOL       C23             7.3763506985        2.8454874028       11.5675025628  SYS       35              0.0000000000
      1248        35  MOL       H24             9.2512123622        3.7035612148       11.8128295623  SYS       35              0.0000000000
      1249        35  MOL       H25             5.5761647492        1.9489158100       11.7355982608  SYS       35              0.0000000000
      1250        35  MOL       H26             2.6805926180       -0.6701727302       17.9700819257  SYS       35              0.0000000000
      1251        35  MOL       C27             3.5549395568       -0.5926622215       19.8077756215  SYS       35              0.0000000000
      1252        35  MOL       C28             4.7739597482       -0.3482828624       21.9608846580  SYS       35              0.0000000000
      1253        35  MOL       H29             7.3400610609        2.9883843833       10.6286193661  SYS       35              0.0000000000
      1254        35  MOL       C30             2.5322009098       -1.3157168532       20.5228880289  SYS       35              0.0000000000
      1255        35  MOL       C31             3.7813084176       -1.0332285023       22.5838040499  SYS       35              0.0000000000
      1256        35  MOL       H32             5.5053303734       -0.0096778947       22.4645364766  SYS       35              0.0000000000
      1257        35  MOL       C33             2.6682207104       -1.5396895499       21.8507668604  SYS       35              0.0000000000
      1258        35  MOL       H34             1.7684927135       -1.6284591272       20.0532574807  SYS       35              0.0000000000
      1259        35  MOL       H35             3.7913316064       -1.1873541307       23.5215582696  SYS       35              0.0000000000
      1260        35  MOL       H36             1.9829392546       -1.9807777604       22.3387834457  SYS       35              0.0000000000
      1261        36  MOL       C1              3.5188514736       -0.6667697299      -11.6359646535  SYS       36              0.0000000000
      1262        36  MOL       C2              2.4839292400       -1.3303880733      -10.9348043616  SYS       36              0.0000000000
      1263        36  MOL       C3              4.6958231333       -0.2098006465      -10.9118774693  SYS       36              0.0000000000
      1264        36  MOL       C4              3.4524165168       -0.4859878285      -13.0253457416  SYS       36              0.0000000000
      1265        36  MOL       C5              2.5814874186       -1.5133613988       -9.5603593791  SYS       36              0.0000000000
      1266        36  MOL       H6              1.7449720986       -1.6727469434      -11.4247098823  SYS       36              0.0000000000
      1267        36  MOL       C7              4.7666175479       -0.3944381800       -9.5203867094  SYS       36              0.0000000000
      1268        36  MOL       C8              5.7438433195        0.4283006350      -11.5885526710  SYS       36              0.0000000000
      1269        36  MOL       C9              4.4895892880        0.1589901506      -13.7121389757  SYS       36              0.0000000000
      1270        36  MOL       H10             2.6768120820       -0.7945058017      -13.4774694797  SYS       36              0.0000000000
      1271        36  MOL       C11             1.5290746371       -2.1751340719       -8.8291464410  SYS       36              0.0000000000
      1272        36  MOL       C12             3.7512356953       -1.0592324811       -8.8461459068  SYS       36              0.0000000000
      1273        36  MOL       H13             5.5260037757       -0.0662199908       -9.0522379081  SYS       36              0.0000000000
      1274        36  MOL       H14             6.4985932776        0.7390010540      -11.1038061260  SYS       36              0.0000000000
      1275        36  MOL       C15             5.6584627476        0.6171946378      -12.9758178741  SYS       36              0.0000000000
      1276        36  MOL       C16             4.4360175404        0.3391211986      -15.1049893905  SYS       36              0.0000000000
      1277        36  MOL       C17             1.6415140916       -2.3690440306       -7.4943492118  SYS       36              0.0000000000
      1278        36  MOL       H18             0.7384408512       -2.4533809155       -9.2753388892  SYS       36              0.0000000000
      1279        36  MOL       C19             3.8101771335       -1.2784707714       -7.4267685233  SYS       36              0.0000000000
      1280        36  MOL       C20             6.7042831977        1.2659055544      -13.6747547910  SYS       36              0.0000000000
      1281        36  MOL       C21             5.4698467314        0.9668123167      -15.7867176963  SYS       36              0.0000000000
      1282        36  MOL       H22             3.6734093565        0.0650272474      -15.6018386501  SYS       36              0.0000000000
      1283        36  MOL       C23             2.7918693123       -1.9094614587       -6.7884616255  SYS       36              0.0000000000
      1284        36  MOL       H24             0.9530325702       -2.8174832331       -7.0176678224  SYS       36              0.0000000000
      1285        36  MOL       H25             4.5843846769       -1.0086836340       -6.9461033072  SYS       36              0.0000000000
      1286        36  MOL       H26             7.4504266797        1.5765990821      -13.1747406914  SYS       36              0.0000000000
      1287        36  MOL       C27             6.6130390198        1.4506628250      -15.0493947754  SYS       36              0.0000000000
      1288        36  MOL       C28             5.4224102442        1.1561214319      -17.2108256694  SYS       36              0.0000000000
      1289        36  MOL       H29             2.8665650982       -2.0707851874       -5.8548485708  SYS       36              0.0000000000
      1290        36  MOL       C30             7.6674977368        2.1032010934      -15.7859398989  SYS       36              0.0000000000
      1291        36  MOL       C31             6.4513540372        1.7770533741      -17.8418993237  SYS       36              0.0000000000
      1292        36  MOL       H32             4.6819406914        0.8395349567      -17.7155031062  SYS       36              0.0000000000
      1293        36  MOL       C33             7.5880803647        2.2579866474      -17.1281998068  SYS       36              0.0000000000
      1294        36  MOL       H34             8.4091963216        2.4464077549      -15.3025113231  SYS       36              0.0000000000
      1295        36  MOL       H35             6.4202202941        1.8815306038      -18.7860144379  SYS       36              0.0000000000
      1296        36  MOL       H36             8.2988423074        2.6684575134      -17.6063847078  SYS       36              0.0000000000
      1297        37  MOL       C1             -2.2861763860        6.7456855148      -10.6727349113  SYS       37              0.0000000000
      1298        37  MOL       C2             -3.3233224748        6.1358233577       -9.9274328054  SYS       37              0.0000000000
      1299        37  MOL       C3             -1.1104360431        7.2501499271       -9.9788072608  SYS       37              0.0000000000
      1300        37  MOL       C4             -2.3852662951        6.8577137160      -12.0674056180  SYS       37              0.0000000000
      1301        37  MOL       C5             -3.2034760986        6.0079019252       -8.5485315039  SYS       37              0.0000000000
      1302        37  MOL       H6             -4.0836423123        5.7934153091      -10.3834428402  SYS       37              0.0000000000
      1303        37  MOL       C7             -1.0054060919        7.1065382069       -8.5846430719  SYS       37              0.0000000000
      1304        37  MOL       C8             -0.0932314930        7.8653603381      -10.7205753772  SYS       37              0.0000000000
      1305        37  MOL       C9             -1.3737131486        7.4972163519      -12.7962440828  SYS       37              0.0000000000
      1306        37  MOL       H10            -3.1616369498        6.5378508171      -12.5102349150  SYS       37              0.0000000000
      1307        37  MOL       C11            -4.2478539849        5.3906166872       -7.7685174910  SYS       37              0.0000000000
      1308        37  MOL       C12            -2.0281456321        6.4990046281       -7.8687805065  SYS       37              0.0000000000
      1309        37  MOL       H13            -0.2412782448        7.4587504070       -8.1423613491  SYS       37              0.0000000000
      1310        37  MOL       H14             0.6642200791        8.2137943852      -10.2666785900  SYS       37              0.0000000000
      1311        37  MOL       C15            -0.1957576560        8.0097084631      -12.1120233767  SYS       37              0.0000000000
      1312        37  MOL       C16            -1.4781062198        7.6208974094      -14.1923653126  SYS       37              0.0000000000
      1313        37  MOL       C17            -4.1149036686        5.2774391417       -6.4263392604  SYS       37              0.0000000000
      1314        37  MOL       H18            -5.0204093567        5.0512859911       -8.2039754875  SYS       37              0.0000000000
      1315        37  MOL       C19            -1.9471383337        6.3327515262       -6.4433088646  SYS       37              0.0000000000
      1316        37  MOL       C20             0.8216491569        8.6505923687      -12.8585019614  SYS       37              0.0000000000
      1317        37  MOL       C21            -0.4749683989        8.2583439897      -14.9099507005  SYS       37              0.0000000000
      1318        37  MOL       H22            -2.2507302928        7.2901859164      -14.6364822723  SYS       37              0.0000000000
      1319        37  MOL       C23            -2.9535816198        5.7472574194       -5.7455952235  SYS       37              0.0000000000
      1320        37  MOL       H24            -4.8084862742        4.9161550534       -5.8871299807  SYS       37              0.0000000000
      1321        37  MOL       H25            -1.1750894687        6.6484325209       -5.9877789209  SYS       37              0.0000000000
      1322        37  MOL       H26             1.5834903086        9.0081807648      -12.4169102243  SYS       37              0.0000000000
      1323        37  MOL       C27             0.6922696991        8.7769175523      -14.2366887196  SYS       37              0.0000000000
      1324        37  MOL       C28            -0.5723217961        8.4308420845      -16.3336565707  SYS       37              0.0000000000
      1325        37  MOL       H29            -2.8852006082        5.6688405134       -4.8009191056  SYS       37              0.0000000000
      1326        37  MOL       C30             1.7153230993        9.4419429570      -15.0056432360  SYS       37              0.0000000000
      1327        37  MOL       C31             0.4117752330        9.0744737836      -17.0117620473  SYS       37              0.0000000000
      1328        37  MOL       H32            -1.3384001568        8.1010717126      -16.7892846182  SYS       37              0.0000000000
      1329        37  MOL       C33             1.5679463892        9.5752615856      -16.3444612209  SYS       37              0.0000000000
      1330        37  MOL       H34             2.4916442426        9.7796911432      -14.5756869171  SYS       37              0.0000000000
      1331        37  MOL       H35             0.3818038975        9.1677708001      -17.9570850270  SYS       37              0.0000000000
      1332        37  MOL       H36             2.2291878151       10.0168612770      -16.8641526291  SYS       37              0.0000000000
      1333        38  MOL       C1             -1.2674083681        7.6386381231       18.2592255364  SYS       38              0.0000000000
      1334        38  MOL       C2             -2.3230819058        7.0193117018       18.9699063756  SYS       38              0.0000000000
      1335        38  MOL       C3             -0.1010165727        8.1329303318       18.9758779441  SYS       38              0.0000000000
      1336        38  MOL       C4             -1.3482855851        7.7823604311       16.8662868153  SYS       38              0.0000000000
      1337        38  MOL       C5             -2.2305153782        6.8644308010       20.3481440876  SYS       38              0.0000000000
      1338        38  MOL       H6             -3.0968940375        6.7107902242       18.5124088849  SYS       38              0.0000000000
      1339        38  MOL       C7             -0.0208054775        7.9584378561       20.3681666920  SYS       38              0.0000000000
      1340        38  MOL       C8              0.9262554290        8.7668043993       18.2643129189  SYS       38              0.0000000000
      1341        38  MOL       C9             -0.3258528093        8.4314217218       16.1614750979  SYS       38              0.0000000000
      1342        38  MOL       H10            -2.1265649148        7.4800402869       16.4145731133  SYS       38              0.0000000000
      1343        38  MOL       C11            -3.2751307162        6.2209550089       21.1063695120  SYS       38              0.0000000000
      1344        38  MOL       C12            -1.0582518513        7.3344552761       21.0478012926  SYS       38              0.0000000000
      1345        38  MOL       H13             0.7397341957        8.2817536955       20.8378519015  SYS       38              0.0000000000
      1346        38  MOL       H14             1.6890756980        9.0835516816       18.7322208785  SYS       38              0.0000000000
      1347        38  MOL       C15             0.8346340190        8.9427659619       16.8757458244  SYS       38              0.0000000000
      1348        38  MOL       C16            -0.4049293009        8.5871012108       14.7668926480  SYS       38              0.0000000000
      1349        38  MOL       C17            -3.1654784687        6.0825895812       22.4482930340  SYS       38              0.0000000000
      1350        38  MOL       H18            -4.0613612798        5.9316604383       20.6594232708  SYS       38              0.0000000000
      1351        38  MOL       C19            -0.9757379216        7.1357535023       22.4690263749  SYS       38              0.0000000000
      1352        38  MOL       C20             1.8591119037        9.5948886977       16.1489307989  SYS       38              0.0000000000
      1353        38  MOL       C21             0.6088759164        9.2284474994       14.0680175963  SYS       38              0.0000000000
      1354        38  MOL       H22            -1.1660795061        8.2592468831       14.3013608789  SYS       38              0.0000000000
      1355        38  MOL       C23            -1.9897786981        6.5182871619       23.1270479431  SYS       38              0.0000000000
      1356        38  MOL       H24            -3.8602256376        5.6602289201       22.9394829300  SYS       38              0.0000000000
      1357        38  MOL       H25            -0.2015956439        7.4284486911       22.9362037822  SYS       38              0.0000000000
      1358        38  MOL       H26             2.6095250697        9.9532691719       16.6090592365  SYS       38              0.0000000000
      1359        38  MOL       C27             1.7619453695        9.7405849946       14.7700083614  SYS       38              0.0000000000
      1360        38  MOL       C28             0.5489836315        9.3737305063       12.6392147959  SYS       38              0.0000000000
      1361        38  MOL       H29            -1.9365958358        6.3855724044       24.0666204620  SYS       38              0.0000000000
      1362        38  MOL       C30             2.7828970013       10.4255285280       14.0158875373  SYS       38              0.0000000000
      1363        38  MOL       C31             1.5491465339       10.0141798079       11.9819213886  SYS       38              0.0000000000
      1364        38  MOL       H32            -0.2073757702        9.0231083121       12.1829188364  SYS       38              0.0000000000
      1365        38  MOL       C33             2.6747164988       10.5515988063       12.6726337973  SYS       38              0.0000000000
      1366        38  MOL       H34             3.5280447615       10.7934988690       14.4751950971  SYS       38              0.0000000000
      1367        38  MOL       H35             1.5070944822       10.0969839980       11.0360814224  SYS       38              0.0000000000
      1368        38  MOL       H36             3.3478231819       11.0045446640       12.1785719452  SYS       38              0.0000000000
      1369        39  MOL       C1              0.4445819608       -6.0011329636       14.0747069179  SYS       39              0.0000000000
      1370        39  MOL       C2              1.4723602706       -5.3292968247       13.3708695517  SYS       39              0.0000000000
      1371        39  MOL       C3             -0.7052096640       -6.5101208194       13.3417022362  SYS       39              0.0000000000
      1372        39  MOL       C4              0.5180919303       -6.1666391015       15.4656344890  SYS       39              0.0000000000
      1373        39  MOL       C5              1.3818998160       -5.1733056704       11.9926172122  SYS       39              0.0000000000
      1374        39  MOL       H6              2.2092218443       -4.9631654850       13.8465349115  SYS       39              0.0000000000
      1375        39  MOL       C7             -0.7735240133       -6.3494957128       11.9471119286  SYS       39              0.0000000000
      1376        39  MOL       C8             -1.7292979793       -7.1754658712       14.0287014851  SYS       39              0.0000000000
      1377        39  MOL       C9             -0.4964040757       -6.8477632896       16.1514016442  SYS       39              0.0000000000
      1378        39  MOL       H10             1.2399775000       -5.7989982189       15.9604908907  SYS       39              0.0000000000
      1379        39  MOL       C11             2.4013961865       -4.4604023338       11.2628336303  SYS       39              0.0000000000
      1380        39  MOL       C12             0.2415480665       -5.6863442034       11.2707901290  SYS       39              0.0000000000
      1381        39  MOL       H13            -1.5173022795       -6.6906136525       11.4633864237  SYS       39              0.0000000000
      1382        39  MOL       H14            -2.4799370660       -7.5207819921       13.5613052927  SYS       39              0.0000000000
      1383        39  MOL       C15            -1.6433012466       -7.3604651757       15.4164533898  SYS       39              0.0000000000
      1384        39  MOL       C16            -0.4186350640       -7.0326261970       17.5424900993  SYS       39              0.0000000000
      1385        39  MOL       C17             2.2985669902       -4.2870662164        9.9244360469  SYS       39              0.0000000000
      1386        39  MOL       H18             3.1610356316       -4.1344484889       11.7300731774  SYS       39              0.0000000000
      1387        39  MOL       C19             0.1822839407       -5.4741468714        9.8503564867  SYS       39              0.0000000000
      1388        39  MOL       C20            -2.6697036151       -8.0363405130       16.1184290204  SYS       39              0.0000000000
      1389        39  MOL       C21            -1.4208580507       -7.7124338586       18.2214326935  SYS       39              0.0000000000
      1390        39  MOL       H22             0.3364165709       -6.7237283472       18.0303805274  SYS       39              0.0000000000
      1391        39  MOL       C23             1.1761859966       -4.8041612963        9.2133213288  SYS       39              0.0000000000
      1392        39  MOL       H24             2.9778394363       -3.8104607150        9.4620878983  SYS       39              0.0000000000
      1393        39  MOL       H25            -0.5682330755       -5.8059416416        9.3709214982  SYS       39              0.0000000000
      1394        39  MOL       H26            -3.4198605415       -8.3960099970       15.6588889122  SYS       39              0.0000000000
      1395        39  MOL       C27            -2.5542995979       -8.2276756740       17.4903505210  SYS       39              0.0000000000
      1396        39  MOL       C28            -1.3534213670       -7.9221513625       19.6418701409  SYS       39              0.0000000000
      1397        39  MOL       H29             1.1329467004       -4.6727728566        8.2730524403  SYS       39              0.0000000000
      1398        39  MOL       C30            -3.5987019987       -8.8921983595       18.2305000473  SYS       39              0.0000000000
      1399        39  MOL       C31            -2.3508307138       -8.5799159717       20.2861185991  SYS       39              0.0000000000
      1400        39  MOL       H32            -0.5996485917       -7.6017729669       20.1239549436  SYS       39              0.0000000000
      1401        39  MOL       C33            -3.4832579120       -9.0644189239       19.5680126962  SYS       39              0.0000000000
      1402        39  MOL       H34            -4.3498802863       -9.2420654522       17.7668892316  SYS       39              0.0000000000
      1403        39  MOL       H35            -2.3164795433       -8.6859240306       21.2299514439  SYS       39              0.0000000000
      1404        39  MOL       H36            -4.1553218614       -9.5325462785       20.0491743096  SYS       39              0.0000000000
      1405        40  MOL       C1             -3.2940699452       -8.7851791406      -12.2670788620  SYS       40              0.0000000000
      1406        40  MOL       C2             -4.3257563966       -9.4502324184      -11.5625177972  SYS       40              0.0000000000
      1407        40  MOL       C3             -2.1414268129       -8.2778932433      -11.5373802192  SYS       40              0.0000000000
      1408        40  MOL       C4             -3.3726257274       -8.6456422849      -13.6605758885  SYS       40              0.0000000000
      1409        40  MOL       C5             -4.2347316471       -9.6232922489      -10.1863417052  SYS       40              0.0000000000
      1410        40  MOL       H6             -5.0731599033       -9.8000231627      -12.0340144622  SYS       40              0.0000000000
      1411        40  MOL       C7             -2.0720594184       -8.4532872801      -10.1446223440  SYS       40              0.0000000000
      1412        40  MOL       C8             -1.1075556804       -7.6318738252      -12.2281611381  SYS       40              0.0000000000
      1413        40  MOL       C9             -2.3360227527       -7.9994740525      -14.3471105092  SYS       40              0.0000000000
      1414        40  MOL       H10            -4.1155980540       -8.9978938865      -14.1349938315  SYS       40              0.0000000000
      1415        40  MOL       C11            -5.2594292975      -10.3256459440       -9.4536193114  SYS       40              0.0000000000
      1416        40  MOL       C12            -3.0929103537       -9.1078084181       -9.4685913707  SYS       40              0.0000000000
      1417        40  MOL       H13            -1.3242255642       -8.0968750619       -9.6784970601  SYS       40              0.0000000000
      1418        40  MOL       H14            -0.3409601330       -7.2906747984      -11.7842287628  SYS       40              0.0000000000
      1419        40  MOL       C15            -1.1860800749       -7.4816643802      -13.6205499389  SYS       40              0.0000000000
      1420        40  MOL       C16            -2.3887110555       -7.8569354670      -15.7443420933  SYS       40              0.0000000000
      1421        40  MOL       C17            -5.1521147476      -10.4883821429       -8.1142433886  SYS       40              0.0000000000
      1422        40  MOL       H18            -6.0099975544      -10.6647495305       -9.9261305175  SYS       40              0.0000000000
      1423        40  MOL       C19            -3.0402856198       -9.2945481746       -8.0443264450  SYS       40              0.0000000000
      1424        40  MOL       C20            -0.1320285523       -6.8652363512      -14.3361412704  SYS       40              0.0000000000
      1425        40  MOL       C21            -1.3688134774       -7.2098926480      -16.4289565394  SYS       40              0.0000000000
      1426        40  MOL       H22            -3.1373989500       -8.1955735095      -16.2222004785  SYS       40              0.0000000000
      1427        40  MOL       C23            -4.0206577377       -9.9847258275       -7.4078823552  SYS       40              0.0000000000
      1428        40  MOL       H24            -5.8274111953      -10.9525634696       -7.6337851966  SYS       40              0.0000000000
      1429        40  MOL       H25            -2.2957039326       -8.9718240055       -7.5496864838  SYS       40              0.0000000000
      1430        40  MOL       H26             0.6413971990       -6.5540837452      -13.8797737354  SYS       40              0.0000000000
      1431        40  MOL       C27            -0.2163499256       -6.7128909100      -15.7151904387  SYS       40              0.0000000000
      1432        40  MOL       C28            -1.4042315987       -7.0536016314      -17.8574138737  SYS       40              0.0000000000
      1433        40  MOL       H29            -3.9903011510      -10.0943796846       -6.4643291499  SYS       40              0.0000000000
      1434        40  MOL       C30             0.8369496191       -6.0625129064      -16.4552962542  SYS       40              0.0000000000
      1435        40  MOL       C31            -0.3966176853       -6.4330428147      -18.5223625335  SYS       40              0.0000000000
      1436        40  MOL       H32            -2.1606459107       -7.3666668822      -18.3401653704  SYS       40              0.0000000000
      1437        40  MOL       C33             0.7299358099       -5.9424200307      -17.7991910019  SYS       40              0.0000000000
      1438        40  MOL       H34             1.6099665335       -5.7436888692      -16.0053997391  SYS       40              0.0000000000
      1439        40  MOL       H35            -0.4383011141       -6.3147437795      -19.4644378916  SYS       40              0.0000000000
      1440        40  MOL       H36             1.4370557972       -5.5407681285      -18.2900950084  SYS       40              0.0000000000
      1441        41  MOL       C1             -2.8751817838       -1.0476719128      -11.5042743439  SYS       41              0.0000000000
      1442        41  MOL       C2             -3.9144619483       -1.7299886092      -10.8279462022  SYS       41              0.0000000000
      1443        41  MOL       C3             -1.7407399229       -0.5400432064      -10.7468180467  SYS       41              0.0000000000
      1444        41  MOL       C4             -2.9129522934       -0.9018562901      -12.8988304378  SYS       41              0.0000000000
      1445        41  MOL       C5             -3.8591958886       -1.8977353909       -9.4492139853  SYS       41              0.0000000000
      1446        41  MOL       H6             -4.6535368091       -2.0768168416      -11.3145191141  SYS       41              0.0000000000
      1447        41  MOL       C7             -1.7103705713       -0.6912768944       -9.3498372037  SYS       41              0.0000000000
      1448        41  MOL       C8             -0.6959563803        0.1070162139      -11.4199824693  SYS       41              0.0000000000
      1449        41  MOL       C9             -1.8773546788       -0.2350523323      -13.5669015115  SYS       41              0.0000000000
      1450        41  MOL       H10            -3.6564977859       -1.2317953664      -13.3881583028  SYS       41              0.0000000000
      1451        41  MOL       C11            -4.8963813833       -2.6091571421       -8.7433007933  SYS       41              0.0000000000
      1452        41  MOL       C12            -2.7441868514       -1.3587522332       -8.7069896323  SYS       41              0.0000000000
      1453        41  MOL       H13            -0.9936546233       -0.3267391206       -8.8428969868  SYS       41              0.0000000000
      1454        41  MOL       H14             0.0400487494        0.4545516615      -10.9314366432  SYS       41              0.0000000000
      1455        41  MOL       C15            -0.7307235397        0.2525306564      -12.8146481359  SYS       41              0.0000000000
      1456        41  MOL       C16            -1.9229826910       -0.0467269174      -14.9589507301  SYS       41              0.0000000000
      1457        41  MOL       C17            -4.8216144360       -2.7749075654       -7.4020834187  SYS       41              0.0000000000
      1458        41  MOL       H18            -5.6212643153       -2.9847120800       -9.2281863607  SYS       41              0.0000000000
      1459        41  MOL       C19            -2.7237952678       -1.5573012870       -7.2834959955  SYS       41              0.0000000000
      1460        41  MOL       C20             0.3240557747        0.8976667821      -13.5033563887  SYS       41              0.0000000000
      1461        41  MOL       C21            -0.8893451928        0.5951574065      -15.6276288707  SYS       41              0.0000000000
      1462        41  MOL       H22            -2.6654100808       -0.3805566838      -15.4497838800  SYS       41              0.0000000000
      1463        41  MOL       C23            -3.7177189677       -2.2482943584       -6.6693461644  SYS       41              0.0000000000
      1464        41  MOL       H24            -5.5150268649       -3.2544977656       -6.9644738737  SYS       41              0.0000000000
      1465        41  MOL       H25            -1.9852962805       -1.2415822513       -6.7753993457  SYS       41              0.0000000000
      1466        41  MOL       H26             1.0750324368        1.2361774927      -13.0293108056  SYS       41              0.0000000000
      1467        41  MOL       C27             0.2462116258        1.0798744139      -14.8791603365  SYS       41              0.0000000000
      1468        41  MOL       C28            -0.9439061106        0.7803812785      -17.0520188817  SYS       41              0.0000000000
      1469        41  MOL       H29            -3.7147551446       -2.4039064330       -5.7317885714  SYS       41              0.0000000000
      1470        41  MOL       C30             1.3049358101        1.7389635741      -15.6036551097  SYS       41              0.0000000000
      1471        41  MOL       C31             0.0719458511        1.4367483621      -17.6682678627  SYS       41              0.0000000000
      1472        41  MOL       H32            -1.6818915759        0.4610652224      -17.5586115971  SYS       41              0.0000000000
      1473        41  MOL       C33             1.2071373969        1.9044547615      -16.9434220611  SYS       41              0.0000000000
      1474        41  MOL       H34             2.0659740231        2.0627367119      -15.1371761881  SYS       41              0.0000000000
      1475        41  MOL       H35             0.0711297893        1.5684191965      -18.6094906183  SYS       41              0.0000000000
      1476        41  MOL       H36             1.9068444936        2.3379310802      -17.4175928431  SYS       41              0.0000000000
      1477        42  MOL       C1             -0.4186816410        5.0811022014        4.0812679589  SYS       42              0.0000000000
      1478        42  MOL       C2             -1.4539667980        4.4321353395        4.7954848350  SYS       42              0.0000000000
      1479        42  MOL       C3              0.7521810468        5.5585004431        4.8020708215  SYS       42              0.0000000000
      1480        42  MOL       C4             -0.4772339738        5.2363933341        2.6884536155  SYS       42              0.0000000000
      1481        42  MOL       C5             -1.3488052088        4.2721161840        6.1722312735  SYS       42              0.0000000000
      1482        42  MOL       H6             -2.2234748500        4.1095021022        4.3404685457  SYS       42              0.0000000000
      1483        42  MOL       C7              0.8416379646        5.3843045962        6.1938332542  SYS       42              0.0000000000
      1484        42  MOL       C8              1.7851205376        6.2057595102        4.1110566443  SYS       42              0.0000000000
      1485        42  MOL       C9              0.5569359859        5.8700017792        1.9867116899  SYS       42              0.0000000000
      1486        42  MOL       H10            -1.2578373485        4.9503511014        2.2301964106  SYS       42              0.0000000000
      1487        42  MOL       C11            -2.3882346015        3.6106065601        6.9220176759  SYS       42              0.0000000000
      1488        42  MOL       C12            -0.1772669734        4.7350339885        6.8778163202  SYS       42              0.0000000000
      1489        42  MOL       H13             1.6150643031        5.6758916553        6.6632441704  SYS       42              0.0000000000
      1490        42  MOL       H14             2.5268480953        6.5529663652        4.5911077797  SYS       42              0.0000000000
      1491        42  MOL       C15             1.7099026270        6.3710555325        2.7201953927  SYS       42              0.0000000000
      1492        42  MOL       C16             0.5101057032        6.0169665756        0.5897300588  SYS       42              0.0000000000
      1493        42  MOL       C17            -2.2619441774        3.4247590334        8.2567231759  SYS       42              0.0000000000
      1494        42  MOL       H18            -3.1599885118        3.2904961986        6.4708679790  SYS       42              0.0000000000
      1495        42  MOL       C19            -0.0993297419        4.5116961674        8.2956377771  SYS       42              0.0000000000
      1496        42  MOL       C20             2.7527781636        7.0229937302        2.0198624134  SYS       42              0.0000000000
      1497        42  MOL       C21             1.5536892641        6.6239337956       -0.0958912390  SYS       42              0.0000000000
      1498        42  MOL       H22            -0.2395852968        5.6862629623        0.1079038996  SYS       42              0.0000000000
      1499        42  MOL       C23            -1.1128256320        3.8964751242        8.9565953482  SYS       42              0.0000000000
      1500        42  MOL       H24            -2.9491871215        2.9587655862        8.7181090376  SYS       42              0.0000000000
      1501        42  MOL       H25             0.6536087397        4.8314676168        8.7794262974  SYS       42              0.0000000000
      1502        42  MOL       H26             3.5104550479        7.3648953337        2.4806266653  SYS       42              0.0000000000
      1503        42  MOL       C27             2.6855124527        7.1408641802        0.6365050059  SYS       42              0.0000000000
      1504        42  MOL       C28             1.5270539438        6.7626950855       -1.5263483494  SYS       42              0.0000000000
      1505        42  MOL       H29            -1.0201603138        3.7410593841        9.8895997576  SYS       42              0.0000000000
      1506        42  MOL       C30             3.7399091015        7.7703472997       -0.1199252987  SYS       42              0.0000000000
      1507        42  MOL       C31             2.5548324576        7.3574420844       -2.1839828200  SYS       42              0.0000000000
      1508        42  MOL       H32             0.7962480126        6.3998296542       -2.0136602002  SYS       42              0.0000000000
      1509        42  MOL       C33             3.6738616487        7.8747545564       -1.4677621604  SYS       42              0.0000000000
      1510        42  MOL       H34             4.4773992584        8.1437632291        0.3472787285  SYS       42              0.0000000000
      1511        42  MOL       H35             2.5228716415        7.4521324031       -3.1291020718  SYS       42              0.0000000000
      1512        42  MOL       H36             4.3682077722        8.3213390781       -1.9376295846  SYS       42              0.0000000000
      1513        43  MOL       C1             -0.9211442355       -9.8898962139        1.5296673834  SYS       43              0.0000000000
      1514        43  MOL       C2             -1.9878636654      -10.5183912344        2.2153661193  SYS       43              0.0000000000
      1515        43  MOL       C3              0.2621999520       -9.4745899441        2.2683165001  SYS       43              0.0000000000
      1516        43  MOL       C4             -0.9968127980       -9.6940092108        0.1428083205  SYS       43              0.0000000000
      1517        43  MOL       C5             -1.9028185480      -10.7373281566        3.5853769947  SYS       43              0.0000000000
      1518        43  MOL       H6             -2.7600756547      -10.7863179849        1.7304139784  SYS       43              0.0000000000
      1519        43  MOL       C7              0.3318552730       -9.7159941162        3.6511474967  SYS       43              0.0000000000
      1520        43  MOL       C8              1.3140826131       -8.8416106574        1.5928248369  SYS       43              0.0000000000
      1521        43  MOL       C9              0.0607033578       -9.0636730965       -0.5263290879  SYS       43              0.0000000000
      1522        43  MOL       H10            -1.7737895854       -9.9852671231       -0.3183178602  SYS       43              0.0000000000
      1523        43  MOL       C11            -2.9777140792      -11.3816650778        4.2992520709  SYS       43              0.0000000000
      1524        43  MOL       C12            -0.7260680650      -10.3244924954        4.3130238922  SYS       43              0.0000000000
      1525        43  MOL       H13             1.0964728873       -9.4415928867        4.1447280798  SYS       43              0.0000000000
      1526        43  MOL       H14             2.0861992910       -8.5714179595        2.0744815542  SYS       43              0.0000000000
      1527        43  MOL       C15             1.2443545352       -8.6391948852        0.2065920451  SYS       43              0.0000000000
      1528        43  MOL       C16            -0.0009091746       -8.8544737685       -1.9147774857  SYS       43              0.0000000000
      1529        43  MOL       C17            -2.8680129456      -11.5929816271        5.6316327691  SYS       43              0.0000000000
      1530        43  MOL       H18            -3.7323240575      -11.6993619942        3.8183744973  SYS       43              0.0000000000
      1531        43  MOL       C19            -0.6665063413      -10.5779513700        5.7266655297  SYS       43              0.0000000000
      1532        43  MOL       C20             2.3010512660       -8.0085233016       -0.4924962716  SYS       43              0.0000000000
      1533        43  MOL       C21             1.0511685324       -8.2594057700       -2.5978433651  SYS       43              0.0000000000
      1534        43  MOL       H22            -0.7728452131       -9.1388987948       -2.3909865581  SYS       43              0.0000000000
      1535        43  MOL       C23            -1.7075996973      -11.1841420242        6.3521199871  SYS       43              0.0000000000
      1536        43  MOL       H24            -3.5664430517      -12.0335083560        6.1011657909  SYS       43              0.0000000000
      1537        43  MOL       H25             0.0902512347      -10.2905930423        6.2246260024  SYS       43              0.0000000000
      1538        43  MOL       H26             3.0789096178       -7.7451267732       -0.0141310161  SYS       43              0.0000000000
      1539        43  MOL       C27             2.2181545311       -7.8239102342       -1.8676842528  SYS       43              0.0000000000
      1540        43  MOL       C28             0.9898196828       -8.0228228001       -4.0143307455  SYS       43              0.0000000000
      1541        43  MOL       H29            -1.6946666623      -11.3096065842        7.2941016871  SYS       43              0.0000000000
      1542        43  MOL       C30             3.2952966699       -7.1921010448       -2.5893282499  SYS       43              0.0000000000
      1543        43  MOL       C31             2.0264675113       -7.4051307002       -4.6359041649  SYS       43              0.0000000000
      1544        43  MOL       H32             0.2368489600       -8.3358287548       -4.5024739896  SYS       43              0.0000000000
      1545        43  MOL       C33             3.1899578595       -6.9907343731       -3.9236005417  SYS       43              0.0000000000
      1546        43  MOL       H34             4.0779672227       -6.9096439984       -2.1318836003  SYS       43              0.0000000000
      1547        43  MOL       H35             1.9664978110       -7.2239202947       -5.5669275665  SYS       43              0.0000000000
      1548        43  MOL       H36             3.8992281122       -6.5800681053       -4.4038281915  SYS       43              0.0000000000
      1549        44  MOL       C1              0.1703120922        1.1336794454       16.6050635110  SYS       44              0.0000000000
      1550        44  MOL       C2              1.1917899581        1.7970246303       15.8842062262  SYS       44              0.0000000000
      1551        44  MOL       C3             -0.9996939233        0.6419945021       15.8925207953  SYS       44              0.0000000000
      1552        44  MOL       C4              0.2726482311        0.9614429253       17.9933492895  SYS       44              0.0000000000
      1553        44  MOL       C5              1.0851695394        1.9433130369       14.5060452651  SYS       44              0.0000000000
      1554        44  MOL       H6              1.9482652520        2.1432153190       16.3437405648  SYS       44              0.0000000000
      1555        44  MOL       C7             -1.0912685878        0.8185100524       14.5011884328  SYS       44              0.0000000000
      1556        44  MOL       C8             -2.0139965906       -0.0106285777       16.6057403263  SYS       44              0.0000000000
      1557        44  MOL       C9             -0.7349416002        0.2932796878       18.7016779684  SYS       44              0.0000000000
      1558        44  MOL       H10             1.0492382146        1.2627331977       18.4486443833  SYS       44              0.0000000000
      1559        44  MOL       C11             2.1295041260        2.5916106042       13.7515496526  SYS       44              0.0000000000
      1560        44  MOL       C12            -0.0689624146        1.4416643105       13.7982508202  SYS       44              0.0000000000
      1561        44  MOL       H13            -1.8555817400        0.4814364487       14.0475754767  SYS       44              0.0000000000
      1562        44  MOL       H14            -2.7810638921       -0.3300544245       16.1466800406  SYS       44              0.0000000000
      1563        44  MOL       C15            -1.9120304949       -0.1876226000       17.9934548365  SYS       44              0.0000000000
      1564        44  MOL       C16            -0.6383017514        0.1077340069       20.0914919648  SYS       44              0.0000000000
      1565        44  MOL       C17             2.0258075357        2.7086148317       12.4071224983  SYS       44              0.0000000000
      1566        44  MOL       H18             2.9047037548        2.9005784308       14.2045565047  SYS       44              0.0000000000
      1567        44  MOL       C19            -0.1249488025        1.5978674382       12.3704420850  SYS       44              0.0000000000
      1568        44  MOL       C20            -2.9411751890       -0.8503715164       18.7038801690  SYS       44              0.0000000000
      1569        44  MOL       C21            -1.6509608008       -0.5456188576       20.7808424584  SYS       44              0.0000000000
      1570        44  MOL       H22             0.1421255961        0.3992921716       20.5491871857  SYS       44              0.0000000000
      1571        44  MOL       C23             0.8937684443        2.1998717724       11.7053543358  SYS       44              0.0000000000
      1572        44  MOL       H24             2.7108367937        3.1499325118       11.9189593171  SYS       44              0.0000000000
      1573        44  MOL       H25            -0.8820465004        1.2827225951       11.8901210749  SYS       44              0.0000000000
      1574        44  MOL       H26            -3.7197271681       -1.1543163398       18.2513881539  SYS       44              0.0000000000
      1575        44  MOL       C27            -2.8072093922       -1.0435228392       20.0738588432  SYS       44              0.0000000000
      1576        44  MOL       C28            -1.5617939509       -0.7546496503       22.2001828269  SYS       44              0.0000000000
      1577        44  MOL       H29             0.8151797428        2.3086015728       10.7644825125  SYS       44              0.0000000000
      1578        44  MOL       C30            -3.8418597553       -1.7223420799       20.8147307357  SYS       44              0.0000000000
      1579        44  MOL       C31            -2.5586396959       -1.3996495796       22.8580653532  SYS       44              0.0000000000
      1580        44  MOL       H32            -0.7914612647       -0.4575146457       22.6708417394  SYS       44              0.0000000000
      1581        44  MOL       C33            -3.6974629869       -1.8848759788       22.1506422847  SYS       44              0.0000000000
      1582        44  MOL       H34            -4.6124733483       -2.0475129648       20.3652539644  SYS       44              0.0000000000
      1583        44  MOL       H35            -2.5205335825       -1.5282021011       23.7989480896  SYS       44              0.0000000000
      1584        44  MOL       H36            -4.3640703779       -2.3407611466       22.6507752377  SYS       44              0.0000000000
      1585        45  MOL       C1             -0.2411689809       -2.0982458623        1.9876261879  SYS       45              0.0000000000
      1586        45  MOL       C2             -1.2811376893       -2.7461703540        2.6959608748  SYS       45              0.0000000000
      1587        45  MOL       C3              0.9039792334       -1.5911058868        2.7291313423  SYS       45              0.0000000000
      1588        45  MOL       C4             -0.2870792849       -1.9399057848        0.5946810456  SYS       45              0.0000000000
      1589        45  MOL       C5             -1.2102324533       -2.9009443493        4.0754946016  SYS       45              0.0000000000
      1590        45  MOL       H6             -2.0424776913       -3.0724694021        2.2299512142  SYS       45              0.0000000000
      1591        45  MOL       C7              0.9611881947       -1.7468398770        4.1247758032  SYS       45              0.0000000000
      1592        45  MOL       C8              1.9442164494       -0.9358491000        2.0568561293  SYS       45              0.0000000000
      1593        45  MOL       C9              0.7450342499       -1.2784984780       -0.0840611168  SYS       45              0.0000000000
      1594        45  MOL       H10            -1.0340841230       -2.2758286994        0.1147841605  SYS       45              0.0000000000
      1595        45  MOL       C11            -2.2676589020       -3.5487876311        4.8119295825  SYS       45              0.0000000000
      1596        45  MOL       C12            -0.0697947762       -2.3885874501        4.7976699962  SYS       45              0.0000000000
      1597        45  MOL       H13             1.7055634314       -1.4037774150        4.6062024088  SYS       45              0.0000000000
      1598        45  MOL       H14             2.6906011843       -0.6089212442        2.5438771421  SYS       45              0.0000000000
      1599        45  MOL       C15             1.8864383894       -0.7737163469        0.6647892501  SYS       45              0.0000000000
      1600        45  MOL       C16             0.6967683676       -1.0863529675       -1.4754991900  SYS       45              0.0000000000
      1601        45  MOL       C17            -2.1550916342       -3.7057619727        6.1515619990  SYS       45              0.0000000000
      1602        45  MOL       H18            -3.0299737233       -3.8732738990        4.3480378221  SYS       45              0.0000000000
      1603        45  MOL       C19            -0.0091654656       -2.6090970083        6.2167793291  SYS       45              0.0000000000
      1604        45  MOL       C20             2.9401460090       -0.1210941066       -0.0184848852  SYS       45              0.0000000000
      1605        45  MOL       C21             1.7406448217       -0.4498332544       -2.1333114897  SYS       45              0.0000000000
      1606        45  MOL       H22            -0.0319983669       -1.4341616170       -1.9769831009  SYS       45              0.0000000000
      1607        45  MOL       C23            -1.0171595713       -3.2387443279        6.8725444526  SYS       45              0.0000000000
      1608        45  MOL       H24            -2.8758008154       -4.1339717098        6.5982658916  SYS       45              0.0000000000
      1609        45  MOL       H25             0.7534835602       -2.3165415801        6.7025768735  SYS       45              0.0000000000
      1610        45  MOL       H26             3.6863316118        0.1928645241        0.4794224235  SYS       45              0.0000000000
      1611        45  MOL       C27             2.8822605691        0.0405172093       -1.3978423059  SYS       45              0.0000000000
      1612        45  MOL       C28             1.7389283968       -0.2811639197       -3.5607985789  SYS       45              0.0000000000
      1613        45  MOL       H29            -0.9790206476       -3.3324815105        7.8175295871  SYS       45              0.0000000000
      1614        45  MOL       C30             3.9524795598        0.7052425913       -2.0999531052  SYS       45              0.0000000000
      1615        45  MOL       C31             2.7710287950        0.3509647180       -4.1753861776  SYS       45              0.0000000000
      1616        45  MOL       H32             1.0001626507       -0.6076551551       -4.0616479733  SYS       45              0.0000000000
      1617        45  MOL       C33             3.8902613140        0.8469717492       -3.4445605136  SYS       45              0.0000000000
      1618        45  MOL       H34             4.6999289749        1.0325171915       -1.6143385473  SYS       45              0.0000000000
      1619        45  MOL       H35             2.7571286334        0.4412263586       -5.1213765433  SYS       45              0.0000000000
      1620        45  MOL       H36             4.5879044913        1.2801621564       -3.9220222806  SYS       45              0.0000000000
      1621        46  MOL       C1              3.2615367887      -10.4539302885       13.7251617757  SYS       46              0.0000000000
      1622        46  MOL       C2              4.3277571400      -10.3723525997       12.7955824395  SYS       46              0.0000000000
      1623        46  MOL       C3              2.0234015085       -9.7266721897       13.4580530488  SYS       46              0.0000000000
      1624        46  MOL       C4              3.3738585182      -11.2084037429       14.9004979523  SYS       46              0.0000000000
      1625        46  MOL       C5              4.1935421106       -9.6159694830       11.6449999007  SYS       46              0.0000000000
      1626        46  MOL       H6              5.1528135604      -10.8108471426       12.9680907943  SYS       46              0.0000000000
      1627        46  MOL       C7              1.9122361595       -8.9746956947       12.2713793491  SYS       46              0.0000000000
      1628        46  MOL       C8              0.9503552939       -9.8227863723       14.3518071622  SYS       46              0.0000000000
      1629        46  MOL       C9              2.3103258750      -11.2906255794       15.8069197195  SYS       46              0.0000000000
      1630        46  MOL       H10             4.1914912349      -11.6581981863       15.0780149804  SYS       46              0.0000000000
      1631        46  MOL       C11             5.2602112407       -9.5562620099       10.6943004774  SYS       46              0.0000000000
      1632        46  MOL       C12             2.9673487601       -8.8998048307       11.3730004509  SYS       46              0.0000000000
      1633        46  MOL       H13             1.1022510742       -8.5082002865       12.1012491408  SYS       46              0.0000000000
      1634        46  MOL       H14             0.1331053491       -9.3644470865       14.1956718950  SYS       46              0.0000000000
      1635        46  MOL       C15             1.0588187575      -10.5966056057       15.5148638896  SYS       46              0.0000000000
      1636        46  MOL       C16             2.4257016400      -12.0445457888       16.9919571056  SYS       46              0.0000000000
      1637        46  MOL       C17             5.1305216590       -8.8049376701        9.5754555084  SYS       46              0.0000000000
      1638        46  MOL       H18             6.0737040214      -10.0158020629       10.8652109917  SYS       46              0.0000000000
      1639        46  MOL       C19             2.8810427780       -8.1512358903       10.1608512604  SYS       46              0.0000000000
      1640        46  MOL       C20            -0.0097567996      -10.6809187795       16.4414900635  SYS       46              0.0000000000
      1641        46  MOL       C21             1.3676731272      -12.1119357739       17.8874961227  SYS       46              0.0000000000
      1642        46  MOL       H22             3.2258851092      -12.5144883658       17.1956688687  SYS       46              0.0000000000
      1643        46  MOL       C23             3.9210676489       -8.0953462094        9.2929460664  SYS       46              0.0000000000
      1644        46  MOL       H24             5.8284551845       -8.7479919861        8.9339191402  SYS       46              0.0000000000
      1645        46  MOL       H25             2.1081712496       -7.6265469964        9.9859000137  SYS       46              0.0000000000
      1646        46  MOL       H26            -0.8129706483      -10.2097019252       16.2529247590  SYS       46              0.0000000000
      1647        46  MOL       C27             0.1278303180      -11.4265067231       17.5987012213  SYS       46              0.0000000000
      1648        46  MOL       C28             1.4696897270      -12.8810553760       19.0854767137  SYS       46              0.0000000000
      1649        46  MOL       H29             3.8386459145       -7.5721085811        8.5041596982  SYS       46              0.0000000000
      1650        46  MOL       C30            -0.9397603056      -11.5345314427       18.5440891483  SYS       46              0.0000000000
      1651        46  MOL       C31             0.4206253690      -12.9526970144       19.9412607196  SYS       46              0.0000000000
      1652        46  MOL       H32             2.2764286254      -13.3445605498       19.2793118967  SYS       46              0.0000000000
      1653        46  MOL       C33            -0.8048846751      -12.2640583957       19.6766617539  SYS       46              0.0000000000
      1654        46  MOL       H34            -1.7600978018      -11.0867061386       18.3748057798  SYS       46              0.0000000000
      1655        46  MOL       H35             0.5061350239      -13.4966708127       20.7155574963  SYS       46              0.0000000000
      1656        46  MOL       H36            -1.5363868116      -12.3117676692       20.2804426562  SYS       46              0.0000000000
      1657        47  MOL       C1              4.8697876780        9.7278608368        3.2889356777  SYS       47              0.0000000000
      1658        47  MOL       C2              5.9359720747        9.7610976685        2.3563346673  SYS       47              0.0000000000
      1659        47  MOL       C3              3.6557318579       10.4906847313        3.0107297154  SYS       47              0.0000000000
      1660        47  MOL       C4              4.9823192733        8.9900949098        4.4748107005  SYS       47              0.0000000000
      1661        47  MOL       C5              5.8314484612       10.5087866474        1.1970222515  SYS       47              0.0000000000
      1662        47  MOL       H6              6.7231124793        9.2561388691        2.5242075009  SYS       47              0.0000000000
      1663        47  MOL       C7              3.5798186425       11.2693182181        1.8385574031  SYS       47              0.0000000000
      1664        47  MOL       C8              2.5968325783       10.4485243612        3.9252882698  SYS       47              0.0000000000
      1665        47  MOL       C9              3.9284802199        8.9628114428        5.3957566249  SYS       47              0.0000000000
      1666        47  MOL       H10             5.7914210223        8.5335236539        4.6729208814  SYS       47              0.0000000000
      1667        47  MOL       C11             6.8805808032       10.5250062905        0.2253043599  SYS       47              0.0000000000
      1668        47  MOL       C12             4.6407191333       11.2889260696        0.9440957955  SYS       47              0.0000000000
      1669        47  MOL       H13             2.7816978948       11.7573700033        1.6728865866  SYS       47              0.0000000000
      1670        47  MOL       H14             1.8037719585       10.9365280826        3.7375176234  SYS       47              0.0000000000
      1671        47  MOL       C15             2.6987016452        9.6937023081        5.1013528264  SYS       47              0.0000000000
      1672        47  MOL       C16             4.0183631644        8.2225713566        6.5915770660  SYS       47              0.0000000000
      1673        47  MOL       C17             6.7768345069       11.2986399728       -0.8809728873  SYS       47              0.0000000000
      1674        47  MOL       H18             7.6615658562       10.0133765864        0.3998190062  SYS       47              0.0000000000
      1675        47  MOL       C19             4.5757991615       12.0826752344       -0.2403270609  SYS       47              0.0000000000
      1676        47  MOL       C20             1.6146433002        9.6345323976        6.0118004774  SYS       47              0.0000000000
      1677        47  MOL       C21             2.9417481303        8.1634732745        7.4652837446  SYS       47              0.0000000000
      1678        47  MOL       H22             4.8207838835        7.7526613322        6.7863683678  SYS       47              0.0000000000
      1679        47  MOL       C23             5.6071167569       12.0864085061       -1.1203298420  SYS       47              0.0000000000
      1680        47  MOL       H24             7.4762220329       11.3160766553       -1.5232158157  SYS       47              0.0000000000
      1681        47  MOL       H25             3.8106974521       12.6248007945       -0.3951044015  SYS       47              0.0000000000
      1682        47  MOL       H26             0.7934365190       10.0774580802        5.8323821195  SYS       47              0.0000000000
      1683        47  MOL       C27             1.7249498605        8.8865724673        7.1704020765  SYS       47              0.0000000000
      1684        47  MOL       C28             3.0245219682        7.3930721023        8.6639247964  SYS       47              0.0000000000
      1685        47  MOL       H29             5.5677216697       12.6025496224       -1.9170740091  SYS       47              0.0000000000
      1686        47  MOL       C30             0.6333493370        8.7791019484        8.0880271618  SYS       47              0.0000000000
      1687        47  MOL       C31             1.9473355002        7.2994329757        9.4818097782  SYS       47              0.0000000000
      1688        47  MOL       H32             3.8147466826        6.9107339619        8.8787074624  SYS       47              0.0000000000
      1689        47  MOL       C33             0.7359575947        8.0030718369        9.1927309815  SYS       47              0.0000000000
      1690        47  MOL       H34            -0.1821183464        9.2361333017        7.9198226180  SYS       47              0.0000000000
      1691        47  MOL       H35             1.9871560698        6.7742262552       10.2725860523  SYS       47              0.0000000000
      1692        47  MOL       H36             0.0002248644        7.9275529866        9.7884802420  SYS       47              0.0000000000
      1693        48  MOL       C1              3.0042432446       11.2973431317      -11.2989254331  SYS       48              0.0000000000
      1694        48  MOL       C2              4.0790139054       11.3636175389      -12.2198348966  SYS       48              0.0000000000
      1695        48  MOL       C3              1.7391920409       11.9504432962      -11.6250174813  SYS       48              0.0000000000
      1696        48  MOL       C4              3.1456828211       10.5928742454      -10.0960206595  SYS       48              0.0000000000
      1697        48  MOL       C5              3.9325781936       12.0545600252      -13.4094248837  SYS       48              0.0000000000
      1698        48  MOL       H6              4.9088789283       10.9445252643      -12.0237726329  SYS       48              0.0000000000
      1699        48  MOL       C7              1.6155622440       12.6402437231      -12.8476833807  SYS       48              0.0000000000
      1700        48  MOL       C8              0.6748076540       11.8685133629      -10.7195695824  SYS       48              0.0000000000
      1701        48  MOL       C9              2.0779132057       10.5198174719       -9.1938048853  SYS       48              0.0000000000
      1702        48  MOL       H10             3.9671224855       10.1552745184       -9.9060365973  SYS       48              0.0000000000
      1703        48  MOL       C11             5.0133888182       12.1228413819      -14.3434288793  SYS       48              0.0000000000
      1704        48  MOL       C12             2.6778653065       12.6928442917      -13.7391435719  SYS       48              0.0000000000
      1705        48  MOL       H13             0.7921965715       13.0710769287      -13.0453948167  SYS       48              0.0000000000
      1706        48  MOL       H14            -0.1466285877       12.2957004035      -10.9319473803  SYS       48              0.0000000000
      1707        48  MOL       C15             0.8131680854       11.1796383936       -9.5073117098  SYS       48              0.0000000000
      1708        48  MOL       C16             2.2181114283        9.8331581598       -7.9711584493  SYS       48              0.0000000000
      1709        48  MOL       C17             4.8580555818       12.7545201984      -15.5308526365  SYS       48              0.0000000000
      1710        48  MOL       H18             5.8353869888       11.6898899150      -14.1458687494  SYS       48              0.0000000000
      1711        48  MOL       C19             2.5645580181       13.3453826878      -15.0034477070  SYS       48              0.0000000000
      1712        48  MOL       C20            -0.2552756953       11.0875391735       -8.5812749267  SYS       48              0.0000000000
      1713        48  MOL       C21             1.1653027653        9.7685715943       -7.0692835277  SYS       48              0.0000000000
      1714        48  MOL       H22             3.0464482421        9.4233890163       -7.7507373382  SYS       48              0.0000000000
      1715        48  MOL       C23             3.6119754391       13.3730249750      -15.8637891904  SYS       48              0.0000000000
      1716        48  MOL       H24             5.5696471267       12.7917690084      -16.1586845630  SYS       48              0.0000000000
      1717        48  MOL       H25             1.7481285531       13.7729354049      -15.2355648711  SYS       48              0.0000000000
      1718        48  MOL       H26            -1.0802840109       11.5150642940       -8.7796136216  SYS       48              0.0000000000
      1719        48  MOL       C27            -0.0942220129       10.4016032689       -7.3906772154  SYS       48              0.0000000000
      1720        48  MOL       C28             1.3049175268        9.0930847264       -5.8197495910  SYS       48              0.0000000000
      1721        48  MOL       H29             3.5322601580       13.7952854012      -16.7111949321  SYS       48              0.0000000000
      1722        48  MOL       C30            -1.1552135348       10.3436313848       -6.4335389456  SYS       48              0.0000000000
      1723        48  MOL       C31             0.2767861801        9.0751418076       -4.9362006078  SYS       48              0.0000000000
      1724        48  MOL       H32             2.1307871221        8.6820744515       -5.5911741297  SYS       48              0.0000000000
      1725        48  MOL       C33            -0.9721106548        9.6924498967       -5.2606972136  SYS       48              0.0000000000
      1726        48  MOL       H34            -1.9890986836       10.7620130255       -6.6117251549  SYS       48              0.0000000000
      1727        48  MOL       H35             0.3705114401        8.6659031158       -4.0838543392  SYS       48              0.0000000000
      1728        48  MOL       H36            -1.6662614535        9.6698239064       -4.6129583295  SYS       48              0.0000000000
      1729        49  MOL       C1              3.0485240414        2.4877348703        2.6499797108  SYS       49              0.0000000000
      1730        49  MOL       C2              1.9577074974        2.4189463010        3.5516370098  SYS       49              0.0000000000
      1731        49  MOL       C3              4.3054561268        1.8372168747        3.0107821928  SYS       49              0.0000000000
      1732        49  MOL       C4              2.9277945536        3.1692447821        1.4316898753  SYS       49              0.0000000000
      1733        49  MOL       C5              2.0797946463        1.7228939609        4.7409961454  SYS       49              0.0000000000
      1734        49  MOL       H6              1.1396931805        2.8516803987        3.3363500767  SYS       49              0.0000000000
      1735        49  MOL       C7              4.4022512906        1.1261629229        4.2236522781  SYS       49              0.0000000000
      1736        49  MOL       C8              5.3921550826        1.9135925637        2.1317402763  SYS       49              0.0000000000
      1737        49  MOL       C9              4.0122678235        3.2364616375        0.5491582041  SYS       49              0.0000000000
      1738        49  MOL       H10             2.1075167141        3.5953010617        1.2126672568  SYS       49              0.0000000000
      1739        49  MOL       C11             0.9718220574        1.6202122038        5.6393449721  SYS       49              0.0000000000
      1740        49  MOL       C12             3.3251369458        1.0807018038        5.0975595185  SYS       49              0.0000000000
      1741        49  MOL       H13             5.2036919835        0.6857268197        4.4812312919  SYS       49              0.0000000000
      1742        49  MOL       H14             6.2066481638        1.4687786294        2.3344523141  SYS       49              0.0000000000
      1743        49  MOL       C15             5.2740902621        2.5983504797        0.9150115633  SYS       49              0.0000000000
      1744        49  MOL       C16             3.8914959741        3.8951765274       -0.6908134509  SYS       49              0.0000000000
      1745        49  MOL       C17             1.0992808357        0.9675853102        6.8187321516  SYS       49              0.0000000000
      1746        49  MOL       H18             0.1485450989        2.0336828523        5.4082280257  SYS       49              0.0000000000
      1747        49  MOL       C19             3.4037632040        0.3823392259        6.3398225618  SYS       49              0.0000000000
      1748        49  MOL       C20             6.3651079669        2.6769567026        0.0144007026  SYS       49              0.0000000000
      1749        49  MOL       C21             4.9647901845        3.9198620052       -1.5702371469  SYS       49              0.0000000000
      1750        49  MOL       H22             3.0568801982        4.2765579020       -0.9369899020  SYS       49              0.0000000000
      1751        49  MOL       C23             2.3330143212        0.3346585420        7.1700383180  SYS       49              0.0000000000
      1752        49  MOL       H24             0.3629258596        0.9404419372        7.4178711297  SYS       49              0.0000000000
      1753        49  MOL       H25             4.2183488073       -0.0422115207        6.5836334192  SYS       49              0.0000000000
      1754        49  MOL       H26             7.1823688732        2.2561688101        0.2547688844  SYS       49              0.0000000000
      1755        49  MOL       C27             6.2252749781        3.3120443065       -1.2066970521  SYS       49              0.0000000000
      1756        49  MOL       C28             4.8486080911        4.5405172927       -2.8502365910  SYS       49              0.0000000000
      1757        49  MOL       H29             2.3783552300       -0.1498584158        7.9860912603  SYS       49              0.0000000000
      1758        49  MOL       C30             7.2850175040        3.3005999127       -2.1669013076  SYS       49              0.0000000000
      1759        49  MOL       C31             5.8762546530        4.4976598398       -3.7334922687  SYS       49              0.0000000000
      1760        49  MOL       H32             4.0248206299        4.9388270542       -3.1070640344  SYS       49              0.0000000000
      1761        49  MOL       C33             7.1105262288        3.8638535268       -3.3856793321  SYS       49              0.0000000000
      1762        49  MOL       H34             8.1108482229        2.8919305995       -1.9363563142  SYS       49              0.0000000000
      1763        49  MOL       H35             5.7835484529        4.9027510327       -4.5879286739  SYS       49              0.0000000000
      1764        49  MOL       H36             7.8322110481        3.8569979591       -4.0029693316  SYS       49              0.0000000000
      1765        50  MOL       C1              0.5650250783        3.6827748023      -10.8724342983  SYS       50              0.0000000000
      1766        50  MOL       C2             -0.4812072449        3.6536728585       -9.9173691104  SYS       50              0.0000000000
      1767        50  MOL       C3              1.7953028021        2.9530356150      -10.5772600488  SYS       50              0.0000000000
      1768        50  MOL       C4              0.4445707960        4.3769262288      -12.0835932546  SYS       50              0.0000000000
      1769        50  MOL       C5             -0.3575453613        2.9411024892       -8.7379961925  SYS       50              0.0000000000
      1770        50  MOL       H6             -1.3032058391        4.1014277516      -10.0804291011  SYS       50              0.0000000000
      1771        50  MOL       C7              1.9027081881        2.2255720907       -9.3750613306  SYS       50              0.0000000000
      1772        50  MOL       C8              2.8534369798        2.9703834001      -11.4935098226  SYS       50              0.0000000000
      1773        50  MOL       C9              1.5117258866        4.4097822441      -12.9888904655  SYS       50              0.0000000000
      1774        50  MOL       H10            -0.3393225234        4.8834183130      -12.2605893478  SYS       50              0.0000000000
      1775        50  MOL       C11            -1.4228949732        2.8864028012       -7.7855175531  SYS       50              0.0000000000
      1776        50  MOL       C12             0.8544735298        2.2012366405       -8.4659036027  SYS       50              0.0000000000
      1777        50  MOL       H13             2.6994957782        1.7408375749       -9.1939534127  SYS       50              0.0000000000
      1778        50  MOL       H14             3.6534945822        2.5026175499      -11.2850547027  SYS       50              0.0000000000
      1779        50  MOL       C15             2.7459243685        3.6871211808      -12.6926718104  SYS       50              0.0000000000
      1780        50  MOL       C16             1.4226108059        5.1361622846      -14.1932373409  SYS       50              0.0000000000
      1781        50  MOL       C17            -1.2749358763        2.1719793404       -6.6449786710  SYS       50              0.0000000000
      1782        50  MOL       H18            -2.2505127809        3.3209462491       -7.9539774139  SYS       50              0.0000000000
      1783        50  MOL       C19             0.9446387074        1.4388814216       -7.2626602342  SYS       50              0.0000000000
      1784        50  MOL       C20             3.8197271807        3.7098809585      -13.6168081709  SYS       50              0.0000000000
      1785        50  MOL       C21             2.4883369757        5.1601905463      -15.0818352534  SYS       50              0.0000000000
      1786        50  MOL       H22             0.6310085169        5.6271359852      -14.3801831475  SYS       50              0.0000000000
      1787        50  MOL       C23            -0.0855239269        1.4223366854       -6.3814530879  SYS       50              0.0000000000
      1788        50  MOL       H24            -1.9714585465        2.1759512884       -5.9994065819  SYS       50              0.0000000000
      1789        50  MOL       H25             1.7418384047        0.9515605251       -7.0887989077  SYS       50              0.0000000000
      1790        50  MOL       H26             4.6159388207        3.2299086170      -13.4207768949  SYS       50              0.0000000000
      1791        50  MOL       C27             3.7123099000        4.4526477829      -14.7790165145  SYS       50              0.0000000000
      1792        50  MOL       C28             2.4186852962        5.9144724319      -16.2915117918  SYS       50              0.0000000000
      1793        50  MOL       H29            -0.0285550620        0.9367822811       -5.5667467839  SYS       50              0.0000000000
      1794        50  MOL       C30             4.7900816347        4.5189638213      -15.7166666009  SYS       50              0.0000000000
      1795        50  MOL       C31             3.4793256821        5.9612984170      -17.1346512318  SYS       50              0.0000000000
      1796        50  MOL       H32             1.6155680986        6.3752135658      -16.5058879787  SYS       50              0.0000000000
      1797        50  MOL       C33             4.6949159781        5.2667305054      -16.8413488681  SYS       50              0.0000000000
      1798        50  MOL       H34             5.5932498750        4.0512150430      -15.5209887328  SYS       50              0.0000000000
      1799        50  MOL       H35             3.4190696919        6.4695273571      -17.9351682228  SYS       50              0.0000000000
      1800        50  MOL       H36             5.4073013594        5.3283408948      -17.4663561937  SYS       50              0.0000000000
      1801        51  MOL       C1              3.7600803289        4.6567813713       16.5176290701  SYS       51              0.0000000000
      1802        51  MOL       C2              4.8305964063        4.7294826848       15.5922597612  SYS       51              0.0000000000
      1803        51  MOL       C3              2.5024504193        5.3233830393       16.1901544553  SYS       51              0.0000000000
      1804        51  MOL       C4              3.8887248119        3.9188543046       17.7017640694  SYS       51              0.0000000000
      1805        51  MOL       C5              4.7053946716        5.4585345836       14.4231673237  SYS       51              0.0000000000
      1806        51  MOL       H6              5.6564718874        4.2996650728       15.7818414167  SYS       51              0.0000000000
      1807        51  MOL       C7              2.3845159923        6.0455211133       14.9857338778  SYS       51              0.0000000000
      1808        51  MOL       C8              1.4296371218        5.2251812849       17.0839612444  SYS       51              0.0000000000
      1809        51  MOL       C9              2.8151055200        3.8330232646       18.5958765872  SYS       51              0.0000000000
      1810        51  MOL       H10             4.7043207482        3.4717616257       17.8947977198  SYS       51              0.0000000000
      1811        51  MOL       C11             5.7939266578        5.5703705779       13.5024240173  SYS       51              0.0000000000
      1812        51  MOL       C12             3.4613633608        6.1273543336       14.1141497128  SYS       51              0.0000000000
      1813        51  MOL       H13             1.5761406258        6.4933572931       14.7652568610  SYS       51              0.0000000000
      1814        51  MOL       H14             0.6091475060        5.6599501432       16.8836529194  SYS       51              0.0000000000
      1815        51  MOL       C15             1.5588423038        4.5081156230       18.2807838455  SYS       51              0.0000000000
      1816        51  MOL       C16             2.9173136598        3.0690464836       19.7756705657  SYS       51              0.0000000000
      1817        51  MOL       C17             5.6805825104        6.3013421516       12.3684242906  SYS       51              0.0000000000
      1818        51  MOL       H18             6.6157994563        5.1315879952       13.6872290960  SYS       51              0.0000000000
      1819        51  MOL       C19             3.3785090185        6.8840464730       12.9068129711  SYS       51              0.0000000000
      1820        51  MOL       C20             0.4822752062        4.4213197516       19.1978815835  SYS       51              0.0000000000
      1821        51  MOL       C21             1.8476513052        3.0015202629       20.6572705507  SYS       51              0.0000000000
      1822        51  MOL       H22             3.7249887201        2.6020500983       19.9551516690  SYS       51              0.0000000000
      1823        51  MOL       C23             4.4444103444        6.9572835297       12.0722319309  SYS       51              0.0000000000
      1824        51  MOL       H24             6.3958700525        6.3718949039       11.7476916831  SYS       51              0.0000000000
      1825        51  MOL       H25             2.5642972776        7.3180455512       12.6789076941  SYS       51              0.0000000000
      1826        51  MOL       H26            -0.3300351413        4.8645100040       18.9822685383  SYS       51              0.0000000000
      1827        51  MOL       C27             0.6173758911        3.7064710058       20.3746178909  SYS       51              0.0000000000
      1828        51  MOL       C28             1.9458189194        2.2312582552       21.8548386723  SYS       51              0.0000000000
      1829        51  MOL       H29             4.3837419293        7.4601237273       11.2683501219  SYS       51              0.0000000000
      1830        51  MOL       C30            -0.4579090971        3.6293936825       21.3142979929  SYS       51              0.0000000000
      1831        51  MOL       C31             0.8982604827        2.1757963653       22.7136635195  SYS       51              0.0000000000
      1832        51  MOL       H32             2.7337023902        1.7324354165       22.0382839966  SYS       51              0.0000000000
      1833        51  MOL       C33            -0.3121715699        2.8857473278       22.4362928196  SYS       51              0.0000000000
      1834        51  MOL       H34            -1.2642927120        4.1075925933       21.1618865859  SYS       51              0.0000000000
      1835        51  MOL       H35             0.9788119284        1.6663741712       23.5116330586  SYS       51              0.0000000000
      1836        51  MOL       H36            -1.0289354652        2.8404023352       23.0576753737  SYS       51              0.0000000000
      1837        52  MOL       C1              3.8829019818       -2.5905892556       14.3672125628  SYS       52              0.0000000000
      1838        52  MOL       C2              4.9453381030       -2.5327651098       13.4315393529  SYS       52              0.0000000000
      1839        52  MOL       C3              2.6531328568       -1.8529704282       14.0900542126  SYS       52              0.0000000000
      1840        52  MOL       C4              3.9789576254       -3.3425033088       15.5456267778  SYS       52              0.0000000000
      1841        52  MOL       C5              4.8394007780       -1.7583062521       12.2900666058  SYS       52              0.0000000000
      1842        52  MOL       H6              5.7432338974       -3.0146562188       13.6156533234  SYS       52              0.0000000000
      1843        52  MOL       C7              2.5723312615       -1.0635874212       12.9254227587  SYS       52              0.0000000000
      1844        52  MOL       C8              1.5796972206       -1.9296758144       14.9852160686  SYS       52              0.0000000000
      1845        52  MOL       C9              2.9167099057       -3.4089065598       16.4548478311  SYS       52              0.0000000000
      1846        52  MOL       H10             4.7872176745       -3.8021407887       15.7400481650  SYS       52              0.0000000000
      1847        52  MOL       C11             5.9086463325       -1.6979838146       11.3423047389  SYS       52              0.0000000000
      1848        52  MOL       C12             3.6336608105       -1.0028607990       12.0333197646  SYS       52              0.0000000000
      1849        52  MOL       H13             1.7831060895       -0.5664259785       12.7448896050  SYS       52              0.0000000000
      1850        52  MOL       H14             0.7846018377       -1.4447835905       14.7979903817  SYS       52              0.0000000000
      1851        52  MOL       C15             1.6778754523       -2.6961404242       16.1540421964  SYS       52              0.0000000000
      1852        52  MOL       C16             3.0301655061       -4.1606860437       17.6414295982  SYS       52              0.0000000000
      1853        52  MOL       C17             5.7900856314       -0.9334370593       10.2312091829  SYS       52              0.0000000000
      1854        52  MOL       H18             6.6940014337       -2.2128251382       11.4848310343  SYS       52              0.0000000000
      1855        52  MOL       C19             3.5686450747       -0.2021139582       10.8536217981  SYS       52              0.0000000000
      1856        52  MOL       C20             0.5966005912       -2.7739218637       17.0663980598  SYS       52              0.0000000000
      1857        52  MOL       C21             1.9478457952       -4.2198642615       18.5080540024  SYS       52              0.0000000000
      1858        52  MOL       H22             3.8394857257       -4.6150375408       17.8444162780  SYS       52              0.0000000000
      1859        52  MOL       C23             4.6141154953       -0.1550624295        9.9917560502  SYS       52              0.0000000000
      1860        52  MOL       H24             6.5100251746       -0.8679235867        9.6153212324  SYS       52              0.0000000000
      1861        52  MOL       H25             2.7639692400        0.2647262416       10.6592155162  SYS       52              0.0000000000
      1862        52  MOL       H26            -0.2175852201       -2.3162054087       16.8921803900  SYS       52              0.0000000000
      1863        52  MOL       C27             0.7178846713       -3.5126003980       18.2298470083  SYS       52              0.0000000000
      1864        52  MOL       C28             2.0407431372       -4.9485841533       19.7317562735  SYS       52              0.0000000000
      1865        52  MOL       H29             4.5641190208        0.3604206532        9.1951806069  SYS       52              0.0000000000
      1866        52  MOL       C30            -0.3604875268       -3.5838430270       19.1664447348  SYS       52              0.0000000000
      1867        52  MOL       C31             0.9940078101       -4.9936756000       20.5921903113  SYS       52              0.0000000000
      1868        52  MOL       H32             2.8369570517       -5.4193589285       19.9500480423  SYS       52              0.0000000000
      1869        52  MOL       C33            -0.2314851548       -4.3175559774       20.2969956683  SYS       52              0.0000000000
      1870        52  MOL       H34            -1.1793032040       -3.1252063536       19.0203240097  SYS       52              0.0000000000
      1871        52  MOL       H35             1.0623506413       -5.5296727808       21.3737216109  SYS       52              0.0000000000
      1872        52  MOL       H36            -0.9395789938       -4.3558006877       20.9287103078  SYS       52              0.0000000000
      1873        53  MOL       C1              2.2301405978       -4.0951448201      -13.5143763396  SYS       53              0.0000000000
      1874        53  MOL       C2              3.3181678568       -4.0256642792      -14.4193446533  SYS       53              0.0000000000
      1875        53  MOL       C3              1.0065542028       -3.3472056931      -13.7912405537  SYS       53              0.0000000000
      1876        53  MOL       C4              2.3316883172       -4.8392859540      -12.3314970177  SYS       53              0.0000000000
      1877        53  MOL       C5              3.2096138476       -3.2718316295      -15.5742999063  SYS       53              0.0000000000
      1878        53  MOL       H6              4.1171354280       -4.5102854047      -14.2474496875  SYS       53              0.0000000000
      1879        53  MOL       C7              0.9206464180       -2.5917679466      -14.9778131469  SYS       53              0.0000000000
      1880        53  MOL       C8             -0.0683719286       -3.4226178474      -12.8977589638  SYS       53              0.0000000000
      1881        53  MOL       C9              1.2736370937       -4.8822217867      -11.4159935121  SYS       53              0.0000000000
      1882        53  MOL       H10             3.1454153687       -5.2941888289      -12.1491176172  SYS       53              0.0000000000
      1883        53  MOL       C11             4.2895828323       -3.1828489018      -16.5075343235  SYS       53              0.0000000000
      1884        53  MOL       C12             1.9889137427       -2.5527540723      -15.8628209031  SYS       53              0.0000000000
      1885        53  MOL       H13             0.1217859430       -2.1150926319      -15.1707915882  SYS       53              0.0000000000
      1886        53  MOL       H14            -0.8616852185       -2.9427140980      -13.1043915129  SYS       53              0.0000000000
      1887        53  MOL       C15             0.0346963292       -4.1696576406      -11.7168398460  SYS       53              0.0000000000
      1888        53  MOL       C16             1.3928440360       -5.5828201065      -10.1990413531  SYS       53              0.0000000000
      1889        53  MOL       C17             4.1667129051       -2.4446965591      -17.6358763894  SYS       53              0.0000000000
      1890        53  MOL       H18             5.0878048241       -3.6676900486      -16.3345352378  SYS       53              0.0000000000
      1891        53  MOL       C19             1.9064362330       -1.7964107358      -17.0704019819  SYS       53              0.0000000000
      1892        53  MOL       C20            -1.0311093330       -4.2213866841      -10.7846483971  SYS       53              0.0000000000
      1893        53  MOL       C21             0.3454315519       -5.5946117016       -9.2886876175  SYS       53              0.0000000000
      1894        53  MOL       H22             2.2069931490       -6.0386452634      -10.0200923598  SYS       53              0.0000000000
      1895        53  MOL       C23             2.9551738541       -1.7425479114      -17.9278884339  SYS       53              0.0000000000
      1896        53  MOL       H24             4.8868234404       -2.4154506019      -18.2543490399  SYS       53              0.0000000000
      1897        53  MOL       H25             1.0964912904       -1.3437144382      -17.2760522347  SYS       53              0.0000000000
      1898        53  MOL       H26            -1.8337650498       -3.7510560152      -10.9777482378  SYS       53              0.0000000000
      1899        53  MOL       C27            -0.8866468328       -4.8995343830       -9.5874785901  SYS       53              0.0000000000
      1900        53  MOL       C28             0.4893481698       -6.2493822142       -8.0286584786  SYS       53              0.0000000000
      1901        53  MOL       H29             2.8908340526       -1.2553819449      -18.7410824984  SYS       53              0.0000000000
      1902        53  MOL       C30            -1.9317798507       -4.9120614896       -8.6114061231  SYS       53              0.0000000000
      1903        53  MOL       C31            -0.5220131201       -6.2204234402       -7.1262480680  SYS       53              0.0000000000
      1904        53  MOL       H32             1.3078390307       -6.6863921553       -7.8229115524  SYS       53              0.0000000000
      1905        53  MOL       C33            -1.7465003183       -5.5460621640       -7.4295278048  SYS       53              0.0000000000
      1906        53  MOL       H34            -2.7741379520       -4.5064218700       -8.7788793980  SYS       53              0.0000000000
      1907        53  MOL       H35            -0.4395327778       -6.6272328852       -6.2715797338  SYS       53              0.0000000000
      1908        53  MOL       H36            -2.4370787690       -5.5283295619       -6.7778301088  SYS       53              0.0000000000
      1909        54  MOL       C1              2.5402312433       -5.2309670453        2.0445869371  SYS       54              0.0000000000
      1910        54  MOL       C2              1.4855964004       -5.2724377764        2.9899038349  SYS       54              0.0000000000
      1911        54  MOL       C3              3.7631550136       -5.9823821755        2.3148888992  SYS       54              0.0000000000
      1912        54  MOL       C4              2.4293475242       -4.4695951838        0.8735706498  SYS       54              0.0000000000
      1913        54  MOL       C5              1.6106780636       -6.0324028039        4.1391544637  SYS       54              0.0000000000
      1914        54  MOL       H6              0.6772364564       -4.8001302346        2.8279332165  SYS       54              0.0000000000
      1915        54  MOL       C7              3.8705328215       -6.7424439017        3.4967505806  SYS       54              0.0000000000
      1916        54  MOL       C8              4.8193297029       -5.9410959216        1.3971454694  SYS       54              0.0000000000
      1917        54  MOL       C9              3.4879331961       -4.4351722470       -0.0416746631  SYS       54              0.0000000000
      1918        54  MOL       H10             1.6434312213       -3.9678085238        0.6921972836  SYS       54              0.0000000000
      1919        54  MOL       C11             0.5335552376       -6.1129948606        5.0764317700  SYS       54              0.0000000000
      1920        54  MOL       C12             2.8175784339       -6.7846606630        4.3997792015  SYS       54              0.0000000000
      1921        54  MOL       H13             4.6830061986       -7.2004465246        3.6777442315  SYS       54              0.0000000000
      1922        54  MOL       H14             5.6248401197       -6.3994290167        1.6055545319  SYS       54              0.0000000000
      1923        54  MOL       C15             4.7161990862       -5.1787557654        0.2260506640  SYS       54              0.0000000000
      1924        54  MOL       C16             3.3807713874       -3.6933528414       -1.2350904222  SYS       54              0.0000000000
      1925        54  MOL       C17             0.6500104096       -6.8636622070        6.1971719031  SYS       54              0.0000000000
      1926        54  MOL       H18            -0.2754543636       -5.6412720201        4.9178789527  SYS       54              0.0000000000
      1927        54  MOL       C19             2.9023535908       -7.5555683945        5.5979546001  SYS       54              0.0000000000
      1928        54  MOL       C20             5.7832650240       -5.1308616608       -0.7049031155  SYS       54              0.0000000000
      1929        54  MOL       C21             4.4193739546       -3.6944349100       -2.1555573765  SYS       54              0.0000000000
      1930        54  MOL       H22             2.5608124795       -3.2574289378       -1.4357788206  SYS       54              0.0000000000
      1931        54  MOL       C23             1.8540862213       -7.5908566018        6.4569802584  SYS       54              0.0000000000
      1932        54  MOL       H24            -0.0487690173       -6.9151063624        6.8382520384  SYS       54              0.0000000000
      1933        54  MOL       H25             3.6940852790       -8.0444555524        5.7913119242  SYS       54              0.0000000000
      1934        54  MOL       H26             6.5721864167       -5.6239282123       -0.5119184063  SYS       54              0.0000000000
      1935        54  MOL       C27             5.6453280974       -4.4083325450       -1.8766088565  SYS       54              0.0000000000
      1936        54  MOL       C28             4.3038507603       -2.9778490370       -3.3844873687  SYS       54              0.0000000000
      1937        54  MOL       H29             1.9139728259       -8.1344121544        7.2339717841  SYS       54              0.0000000000
      1938        54  MOL       C30             6.7101391040       -4.3613317952       -2.8301002639  SYS       54              0.0000000000
      1939        54  MOL       C31             5.3446782960       -2.9606426585       -4.2530590692  SYS       54              0.0000000000
      1940        54  MOL       H32             3.5133440940       -2.4881823319       -3.5808607467  SYS       54              0.0000000000
      1941        54  MOL       C33             6.5590205799       -3.6664279319       -3.9822259220  SYS       54              0.0000000000
      1942        54  MOL       H34             7.5111693026       -4.8334189938       -2.6360841100  SYS       54              0.0000000000
      1943        54  MOL       H35             5.2860666878       -2.4513918177       -5.0530485398  SYS       54              0.0000000000
      1944        54  MOL       H36             7.2631660076       -3.6282189798       -4.6183408653  SYS       54              0.0000000000
