* EXECUTING CHARMM SCRIPT FROM PYTHON
*  DATE:    11/14/25     13:22:17      CREATED BY USER: takahashi
*
      1944  EXT
         1         1  MOL       C1            -10.5742219898        8.7887526307        4.3640138418  SYS       1               0.0000000000
         2         1  MOL       C2            -11.6162570073        8.7584074793        5.3236182866  SYS       1               0.0000000000
         3         1  MOL       C3             -9.3153717834        8.1060798776        4.6512149106  SYS       1               0.0000000000
         4         1  MOL       C4            -10.7384266171        9.4690375314        3.1501313159  SYS       1               0.0000000000
         5         1  MOL       C5            -11.4370772776        8.0887588219        6.5208795632  SYS       1               0.0000000000
         6         1  MOL       H6            -12.4337779685        9.2083109009        5.1447298231  SYS       1               0.0000000000
         7         1  MOL       C7             -9.1619013451        7.4160059244        5.8703398491  SYS       1               0.0000000000
         8         1  MOL       C8             -8.2720900264        8.1446957765        3.7187265675  SYS       1               0.0000000000
         9         1  MOL       C9             -9.7015814416        9.4956429073        2.2100745298  SYS       1               0.0000000000
        10         1  MOL       H10           -11.5586587978        9.9104912763        2.9638832145  SYS       1               0.0000000000
        11         1  MOL       C11           -12.4663290471        8.0740678418        7.5136546525  SYS       1               0.0000000000
        12         1  MOL       C12           -10.1945790345        7.4030601222        6.7973593071  SYS       1               0.0000000000
        13         1  MOL       H13            -8.3453169519        6.9682853599        6.0584204611  SYS       1               0.0000000000
        14         1  MOL       H14            -7.4505644748        7.7061912006        3.9062368305  SYS       1               0.0000000000
        15         1  MOL       C15            -8.4375884571        8.8261984700        2.5057031433  SYS       1               0.0000000000
        16         1  MOL       C16            -9.8631839156       10.1547375955        0.9749633299  SYS       1               0.0000000000
        17         1  MOL       C17           -12.2705994908        7.4371862214        8.6922951665  SYS       1               0.0000000000
        18         1  MOL       H18           -13.2865599680        8.5232666052        7.3475231507  SYS       1               0.0000000000
        19         1  MOL       C19           -10.0452263709        6.7244979604        8.0440978584  SYS       1               0.0000000000
        20         1  MOL       C20            -7.3874619295        8.8678073698        1.5553866316  SYS       1               0.0000000000
        21         1  MOL       C21            -8.8318153429       10.1611820061        0.0464197180  SYS       1               0.0000000000
        22         1  MOL       H22           -10.6865282029       10.5853357933        0.7766518009  SYS       1               0.0000000000
        23         1  MOL       C23           -11.0455764489        6.7484333381        8.9588446231  SYS       1               0.0000000000
        24         1  MOL       H24           -12.9503523885        7.4483902679        9.3554191337  SYS       1               0.0000000000
        25         1  MOL       H25            -9.2357854863        6.2630805627        8.2315444190  SYS       1               0.0000000000
        26         1  MOL       H26            -6.5614759056        8.4386604107        1.7460031643  SYS       1               0.0000000000
        27         1  MOL       C27            -7.5715887726        9.5206075503        0.3496012105  SYS       1               0.0000000000
        28         1  MOL       C28            -8.9970912508       10.7839590124       -1.2271353555  SYS       1               0.0000000000
        29         1  MOL       H29           -10.9365935288        6.3057171482        9.7924392344  SYS       1               0.0000000000
        30         1  MOL       C30            -6.5219697225        9.5655045264       -0.6206881994  SYS       1               0.0000000000
        31         1  MOL       C31            -7.9791915361       10.7826061673       -2.1226313928  SYS       1               0.0000000000
        32         1  MOL       H32            -9.8242159895       11.1979698876       -1.4455304729  SYS       1               0.0000000000
        33         1  MOL       C33            -6.7178416164       10.1857876630       -1.8081244065  SYS       1               0.0000000000
        34         1  MOL       H34            -5.6868764266        9.1542162567       -0.4319579513  SYS       1               0.0000000000
        35         1  MOL       H35            -8.0940292739       11.1812692376       -2.9774032539  SYS       1               0.0000000000
        36         1  MOL       H36            -6.0137645143       10.2224417038       -2.4444064475  SYS       1               0.0000000000
        37         2  MOL       C1             -8.6089175390        4.0143677952       15.8116448994  SYS       2               0.0000000000
        38         2  MOL       C2             -7.6118686660        4.1024027290       14.8087780547  SYS       2               0.0000000000
        39         2  MOL       C3             -9.8943039326        4.6767543030       15.6060814533  SYS       2               0.0000000000
        40         2  MOL       C4             -8.3710713890        3.2973345748       16.9917101688  SYS       2               0.0000000000
        41         2  MOL       C5             -7.8662808641        4.7994325698       13.6411338032  SYS       2               0.0000000000
        42         2  MOL       H6             -6.7755576242        3.6699281000       14.9364660476  SYS       2               0.0000000000
        43         2  MOL       C7            -10.1234276201        5.3935011345       14.4145290313  SYS       2               0.0000000000
        44         2  MOL       C8            -10.8866271694        4.5931832270       16.5898359982  SYS       2               0.0000000000
        45         2  MOL       C9             -9.3630810164        3.2128762493       17.9757051977  SYS       2               0.0000000000
        46         2  MOL       H10            -7.5345307136        2.8669951224       17.1234608774  SYS       2               0.0000000000
        47         2  MOL       C11            -6.8823585029        4.8715306675       12.6058193205  SYS       2               0.0000000000
        48         2  MOL       C12            -9.1366243328        5.4601943087       13.4410162309  SYS       2               0.0000000000
        49         2  MOL       H13           -10.9579578813        5.8269178346       14.2790768483  SYS       2               0.0000000000
        50         2  MOL       H14           -11.7225035010        5.0250931829       16.4590111721  SYS       2               0.0000000000
        51         2  MOL       C15           -10.6478540324        3.8763583311       17.7698406281  SYS       2               0.0000000000
        52         2  MOL       C16            -9.1368873736        2.4943297930       19.1667334381  SYS       2               0.0000000000
        53         2  MOL       C17            -7.1498772877        5.5338106439       11.4556277366  SYS       2               0.0000000000
        54         2  MOL       H18            -6.0441782637        4.4403555507       12.7228657545  SYS       2               0.0000000000
        55         2  MOL       C19            -9.3590680874        6.1709588316       12.2234603063  SYS       2               0.0000000000
        56         2  MOL       C20           -11.6421138595        3.7994532374       18.7763849644  SYS       2               0.0000000000
        57         2  MOL       C21           -10.1228073720        2.4324769625       20.1414600082  SYS       2               0.0000000000
        58         2  MOL       H22            -8.3027123221        2.0605174408       19.3031039337  SYS       2               0.0000000000
        59         2  MOL       C23            -8.3990050556        6.2047351168       11.2668135855  SYS       2               0.0000000000
        60         2  MOL       H24            -6.5031129950        5.5539680640       10.7604928222  SYS       2               0.0000000000
        61         2  MOL       H25           -10.1866709154        6.6175231868       12.0860172109  SYS       2               0.0000000000
        62         2  MOL       H26           -12.4764010767        4.2362462369       18.6501653107  SYS       2               0.0000000000
        63         2  MOL       C27           -11.3894048452        3.1010585699       19.9435834450  SYS       2               0.0000000000
        64         2  MOL       C28            -9.9065913189        1.7141245001       21.3556800008  SYS       2               0.0000000000
        65         2  MOL       H29            -8.5496460081        6.6769607171       10.4562180216  SYS       2               0.0000000000
        66         2  MOL       C30           -12.3679008086        3.0469522328       20.9851186386  SYS       2               0.0000000000
        67         2  MOL       C31           -10.8647433266        1.6880752417       22.3144818527  SYS       2               0.0000000000
        68         2  MOL       H32            -9.0831360880        1.2596947662       21.4922518705  SYS       2               0.0000000000
        69         2  MOL       C33           -12.1041495841        2.3786862555       22.1327150853  SYS       2               0.0000000000
        70         2  MOL       H34           -13.2008846154        3.4891886311       20.8723227018  SYS       2               0.0000000000
        71         2  MOL       H35           -10.7177603468        1.2091306743       23.1218002519  SYS       2               0.0000000000
        72         2  MOL       H36           -12.7504562437        2.3671048820       22.8284711504  SYS       2               0.0000000000
        73         3  MOL       C1              7.7555232802        4.4843947279      -10.4689815616  SYS       3               0.0000000000
        74         3  MOL       C2              6.7075099670        4.4335019015       -9.5167859352  SYS       3               0.0000000000
        75         3  MOL       C3              9.0211863715        3.8151644024      -10.1800904309  SYS       3               0.0000000000
        76         3  MOL       C4              7.5887825123        5.1746578888      -11.6768705266  SYS       3               0.0000000000
        77         3  MOL       C5              6.8927679318        3.7692828488       -8.3174270238  SYS       3               0.0000000000
        78         3  MOL       H6              5.8804792979        4.8623122652       -9.7035923356  SYS       3               0.0000000000
        79         3  MOL       C7              9.1878534341        3.1531904749       -8.9471940611  SYS       3               0.0000000000
        80         3  MOL       C8             10.0542975466        3.8442062313      -11.1241775188  SYS       3               0.0000000000
        81         3  MOL       C9              8.6283659287        5.2179724270      -12.6132746599  SYS       3               0.0000000000
        82         3  MOL       H10             6.7672139206        5.6153429127      -11.8590032926  SYS       3               0.0000000000
        83         3  MOL       C11             5.8434528278        3.7080477537       -7.3477025834  SYS       3               0.0000000000
        84         3  MOL       C12             8.1565052234        3.1334965755       -8.0188143444  SYS       3               0.0000000000
        85         3  MOL       H13            10.0136383100        2.7260285339       -8.7516177103  SYS       3               0.0000000000
        86         3  MOL       H14            10.8747129623        3.4008310299      -10.9433804980  SYS       3               0.0000000000
        87         3  MOL       C15             9.8860537335        4.5296458585      -12.3346022399  SYS       3               0.0000000000
        88         3  MOL       C16             8.4737573464        5.9169557357      -13.8271689583  SYS       3               0.0000000000
        89         3  MOL       C17             6.0393385388        3.0710230215       -6.1691653436  SYS       3               0.0000000000
        90         3  MOL       H18             5.0068365163        4.1180240771       -7.5325011862  SYS       3               0.0000000000
        91         3  MOL       C19             8.3229533034        2.4991085504       -6.7511563693  SYS       3               0.0000000000
        92         3  MOL       C20            10.9231268505        4.5598216921      -13.2995723260  SYS       3               0.0000000000
        93         3  MOL       C21             9.5019296899        5.9326481007      -14.7591406706  SYS       3               0.0000000000
        94         3  MOL       H22             7.6579461715        6.3686957246      -14.0088863052  SYS       3               0.0000000000
        95         3  MOL       C23             7.3019919813        2.4744328749       -5.8594928022  SYS       3               0.0000000000
        96         3  MOL       H24             5.3333538396        3.0223115200       -5.5358125864  SYS       3               0.0000000000
        97         3  MOL       H25             9.1539098252        2.0912692578       -6.5357146218  SYS       3               0.0000000000
        98         3  MOL       H26            11.7391108336        4.1044357396      -13.1276756741  SYS       3               0.0000000000
        99         3  MOL       C27            10.7412872965        5.2377096747      -14.4917851879  SYS       3               0.0000000000
       100         3  MOL       C28             9.3528873486        6.6210643171      -16.0005025657  SYS       3               0.0000000000
       101         3  MOL       H29             7.4174498202        2.0572404941       -5.0136944335  SYS       3               0.0000000000
       102         3  MOL       C30            11.7654732030        5.2496067154      -15.4898228092  SYS       3               0.0000000000
       103         3  MOL       C31            10.3502808444        6.5997167718      -16.9185359761  SYS       3               0.0000000000
       104         3  MOL       H32             8.5456062612        7.0879252633      -16.1837370359  SYS       3               0.0000000000
       105         3  MOL       C33            11.5691071828        5.8958733548      -16.6632372863  SYS       3               0.0000000000
       106         3  MOL       H34            12.5826126943        4.7926390640      -15.3297553390  SYS       3               0.0000000000
       107         3  MOL       H35            10.2438875642        7.0534641257      -17.7465146519  SYS       3               0.0000000000
       108         3  MOL       H36            12.2474741816        5.8825828813      -17.3277404840  SYS       3               0.0000000000
       109         4  MOL       C1              7.8179611537       -2.7961235372       17.0733508741  SYS       4               0.0000000000
       110         4  MOL       C2              6.8211085354       -2.8651246017       18.0779016276  SYS       4               0.0000000000
       111         4  MOL       C3              9.1021540787       -3.4579799812       17.2878851409  SYS       4               0.0000000000
       112         4  MOL       C4              7.5807639848       -2.0921190722       15.8853371079  SYS       4               0.0000000000
       113         4  MOL       C5              7.0732476558       -3.5493273574       19.2535978920  SYS       4               0.0000000000
       114         4  MOL       H6              5.9869358111       -2.4299844629       17.9453737903  SYS       4               0.0000000000
       115         4  MOL       C7              9.3257924780       -4.1667697933       18.4852254118  SYS       4               0.0000000000
       116         4  MOL       C8             10.0966173181       -3.3819827352       16.3056785413  SYS       4               0.0000000000
       117         4  MOL       C9              8.5756689216       -2.0165879134       14.9035419437  SYS       4               0.0000000000
       118         4  MOL       H10             6.7441269638       -1.6637175386       15.7480009909  SYS       4               0.0000000000
       119         4  MOL       C11             6.0923091296       -3.5927037574       20.2933360864  SYS       4               0.0000000000
       120         4  MOL       C12             8.3383916191       -4.2183761413       19.4590489044  SYS       4               0.0000000000
       121         4  MOL       H13            10.1583334336       -4.6023422824       18.6259032366  SYS       4               0.0000000000
       122         4  MOL       H14            10.9328270652       -3.8113196701       16.4426954978  SYS       4               0.0000000000
       123         4  MOL       C15             9.8611682329       -2.6757124319       15.1186623436  SYS       4               0.0000000000
       124         4  MOL       C16             8.3481264777       -1.3103939872       13.7054036245  SYS       4               0.0000000000
       125         4  MOL       C17             6.3552250512       -4.2466549833       21.4493398655  SYS       4               0.0000000000
       126         4  MOL       H18             5.2597455870       -3.1512925572       20.1743735821  SYS       4               0.0000000000
       127         4  MOL       C19             8.5525557873       -4.9237936452       20.6811903453  SYS       4               0.0000000000
       128         4  MOL       C20            10.8581650404       -2.6008607875       14.1146737475  SYS       4               0.0000000000
       129         4  MOL       C21             9.3364607124       -1.2547539780       12.7327497807  SYS       4               0.0000000000
       130         4  MOL       H22             7.5132808067       -0.8795998933       13.5636741341  SYS       4               0.0000000000
       131         4  MOL       C23             7.5936548311       -4.9367548015       21.6395096025  SYS       4               0.0000000000
       132         4  MOL       H24             5.7089408172       -4.2489233588       22.1452094335  SYS       4               0.0000000000
       133         4  MOL       H25             9.3747109477       -5.3791069518       20.8225673321  SYS       4               0.0000000000
       134         4  MOL       H26            11.6937382716       -3.0332205014       14.2474786996  SYS       4               0.0000000000
       135         4  MOL       C27            10.6056958020       -1.9155413992       12.9396989083  SYS       4               0.0000000000
       136         4  MOL       C28             9.1161956789       -0.5535203441       11.5092856214  SYS       4               0.0000000000
       137         4  MOL       H29             7.7387989412       -5.4061345558       22.4527566290  SYS       4               0.0000000000
       138         4  MOL       C30            11.5871797976       -1.8619213009       11.9009537704  SYS       4               0.0000000000
       139         4  MOL       C31            10.0748169206       -0.5359231035       10.5507604681  SYS       4               0.0000000000
       140         4  MOL       H32             8.2904429145       -0.1046592210       11.3682436466  SYS       4               0.0000000000
       141         4  MOL       C33            11.3211912915       -1.2106583027       10.7441355734  SYS       4               0.0000000000
       142         4  MOL       H34            12.4230975556       -2.2965381228       12.0214016388  SYS       4               0.0000000000
       143         4  MOL       H35             9.9243318182       -0.0719284092        9.7353967146  SYS       4               0.0000000000
       144         4  MOL       H36            11.9668720145       -1.2009388118       10.0477701061  SYS       4               0.0000000000
       145         5  MOL       C1              9.6043828444       -3.0661379133      -13.5812035690  SYS       5               0.0000000000
       146         5  MOL       C2             10.6435396315       -3.0439660039      -14.5441470262  SYS       5               0.0000000000
       147         5  MOL       C3              8.3533686793       -2.3657522687      -13.8598680163  SYS       5               0.0000000000
       148         5  MOL       C4              9.7660428113       -3.7535207948      -12.3709836321  SYS       5               0.0000000000
       149         5  MOL       C5             10.4722011385       -2.3564776283      -15.7324113499  SYS       5               0.0000000000
       150         5  MOL       H6             11.4547880274       -3.5078506907      -14.3725611211  SYS       5               0.0000000000
       151         5  MOL       C7              8.2083903071       -1.6596297816      -15.0708152430  SYS       5               0.0000000000
       152         5  MOL       C8              7.3113578681       -2.4027641057      -12.9258947170  SYS       5               0.0000000000
       153         5  MOL       C9              8.7322146740       -3.7725026423      -11.4274256593  SYS       5               0.0000000000
       154         5  MOL       H10            10.5827437879       -4.2032070144      -12.1889605409  SYS       5               0.0000000000
       155         5  MOL       C11            11.5012768456       -2.3445486499      -16.7254059702  SYS       5               0.0000000000
       156         5  MOL       C12             9.2413219845       -1.6457951432      -15.9975388357  SYS       5               0.0000000000
       157         5  MOL       H13             7.3975777376       -1.1986384250      -15.2516688602  SYS       5               0.0000000000
       158         5  MOL       H14             6.4937389852       -1.9552330284      -13.1091047098  SYS       5               0.0000000000
       159         5  MOL       C15             7.4715945125       -3.0945343388      -11.7179875681  SYS       5               0.0000000000
       160         5  MOL       C16             8.8939850060       -4.4319954507      -10.1925489392  SYS       5               0.0000000000
       161         5  MOL       C17            11.3187108618       -1.6793111982      -17.8904169244  SYS       5               0.0000000000
       162         5  MOL       H18            12.3126812891       -2.8120614324      -16.5666212188  SYS       5               0.0000000000
       163         5  MOL       C19             9.1062081742       -0.9390751249      -17.2301786594  SYS       5               0.0000000000
       164         5  MOL       C20             6.4218763638       -3.1371182469      -10.7672631325  SYS       5               0.0000000000
       165         5  MOL       C21             7.8641402418       -4.4369149842       -9.2623062437  SYS       5               0.0000000000
       166         5  MOL       H22             9.7170271739       -4.8638271116       -9.9956705104  SYS       5               0.0000000000
       167         5  MOL       C23            10.1091136648       -0.9584955303      -18.1422303311  SYS       5               0.0000000000
       168         5  MOL       H24            12.0004535608       -1.6901012125      -18.5515019328  SYS       5               0.0000000000
       169         5  MOL       H25             8.3052382588       -0.4605545782      -17.4110157577  SYS       5               0.0000000000
       170         5  MOL       H26             5.5973831569       -2.7043071304      -10.9560492323  SYS       5               0.0000000000
       171         5  MOL       C27             6.6042195318       -3.7950325037       -9.5639888058  SYS       5               0.0000000000
       172         5  MOL       C28             8.0297696357       -5.0600668245       -7.9889804410  SYS       5               0.0000000000
       173         5  MOL       H29            10.0111348702       -0.4921949331      -18.9642514892  SYS       5               0.0000000000
       174         5  MOL       C30             5.5564639539       -3.8407223850       -8.5917243549  SYS       5               0.0000000000
       175         5  MOL       C31             7.0135353272       -5.0615583565       -7.0915950958  SYS       5               0.0000000000
       176         5  MOL       H32             8.8580068703       -5.4729325963       -7.7726433871  SYS       5               0.0000000000
       177         5  MOL       C33             5.7540708083       -4.4595913306       -7.4038377809  SYS       5               0.0000000000
       178         5  MOL       H34             4.7212238499       -3.4292948939       -8.7794991287  SYS       5               0.0000000000
       179         5  MOL       H35             7.1309220290       -5.4660911607       -6.2399329133  SYS       5               0.0000000000
       180         5  MOL       H36             5.0514424962       -4.4908993072       -6.7656715002  SYS       5               0.0000000000
       181         6  MOL       C1              7.5066961256      -10.3790705000       15.8875959423  SYS       6               0.0000000000
       182         6  MOL       C2              6.5038843878      -10.4394994957       16.8867533096  SYS       6               0.0000000000
       183         6  MOL       C3              8.7796251376      -11.0612844456       16.1054634702  SYS       6               0.0000000000
       184         6  MOL       C4              7.2870834174       -9.6686070028       14.7000466440  SYS       6               0.0000000000
       185         6  MOL       C5              6.7349008365      -11.1407634209       18.0567232209  SYS       6               0.0000000000
       186         6  MOL       H6              5.6772302785       -9.9907420342       16.7525355285  SYS       6               0.0000000000
       187         6  MOL       C7              8.9840902354      -11.7827552709       17.2986502604  SYS       6               0.0000000000
       188         6  MOL       C8              9.7807485144      -10.9949341840       15.1293424877  SYS       6               0.0000000000
       189         6  MOL       C9              8.2857031062       -9.6087993375       13.7209428284  SYS       6               0.0000000000
       190         6  MOL       H10             6.4571582435       -9.2284326148       14.5592584480  SYS       6               0.0000000000
       191         6  MOL       C11             5.7450369370      -11.1848397622       19.0879381076  SYS       6               0.0000000000
       192         6  MOL       C12             7.9880590822      -11.8315182688       18.2637927444  SYS       6               0.0000000000
       193         6  MOL       H13             9.8087983546      -12.2324305121       17.4410819267  SYS       6               0.0000000000
       194         6  MOL       H14            10.6096670276      -11.4372375370       15.2693868676  SYS       6               0.0000000000
       195         6  MOL       C15             9.5615117435      -10.2847159327       13.9415770529  SYS       6               0.0000000000
       196         6  MOL       C16             8.0717413595       -8.9063419039       12.5181150004  SYS       6               0.0000000000
       197         6  MOL       C17             5.9853055269      -11.8631037950       20.2348254762  SYS       6               0.0000000000
       198         6  MOL       H18             4.9201194414      -10.7293889299       18.9686332771  SYS       6               0.0000000000
       199         6  MOL       C19             8.1811133071      -12.5567353915       19.4778355935  SYS       6               0.0000000000
       200         6  MOL       C20            10.5630736592      -10.2250026563       12.9411238764  SYS       6               0.0000000000
       201         6  MOL       C21             9.0623145545       -8.8697401000       11.5468370106  SYS       6               0.0000000000
       202         6  MOL       H22             7.2422978628       -8.4669092930       12.3712798274  SYS       6               0.0000000000
       203         6  MOL       C23             7.2128727647      -12.5718908998       20.4266851018  SYS       6               0.0000000000
       204         6  MOL       H24             5.3311162817      -11.8706234879       20.9232314713  SYS       6               0.0000000000
       205         6  MOL       H25             8.9953491344      -13.0257823323       19.6201442695  SYS       6               0.0000000000
       206         6  MOL       H26            11.3923713529      -10.6679544670       13.0782870009  SYS       6               0.0000000000
       207         6  MOL       C27            10.3238692125       -9.5426050881       11.7616816026  SYS       6               0.0000000000
       208         6  MOL       C28             8.8515332359       -8.1799450381       10.3152267416  SYS       6               0.0000000000
       209         6  MOL       H29             7.3454060210      -13.0550468182       21.2339955582  SYS       6               0.0000000000
       210         6  MOL       C30            11.3088557308       -9.5058931828       10.7255198401  SYS       6               0.0000000000
       211         6  MOL       C31             9.8124414367       -8.1793606998        9.3588325251  SYS       6               0.0000000000
       212         6  MOL       H32             8.0295573120       -7.7264525147       10.1671156807  SYS       6               0.0000000000
       213         6  MOL       C33            11.0540033036       -8.8596471039        9.5633933471  SYS       6               0.0000000000
       214         6  MOL       H34            12.1397539399       -9.9485761673       10.8512095505  SYS       6               0.0000000000
       215         6  MOL       H35             9.6665530809       -7.7244347811        8.5375445886  SYS       6               0.0000000000
       216         6  MOL       H36            11.7029687627       -8.8580230416        8.8700217844  SYS       6               0.0000000000
       217         7  MOL       C1             -8.6131809667       11.1616117007      -11.5243367280  SYS       7               0.0000000000
       218         7  MOL       C2             -7.5637523503       11.1905681801      -12.4758931357  SYS       7               0.0000000000
       219         7  MOL       C3             -9.8633866067       11.8589319968      -11.8140963636  SYS       7               0.0000000000
       220         7  MOL       C4             -8.4624539948       10.4689552534      -10.3157135782  SYS       7               0.0000000000
       221         7  MOL       C5             -7.7286557975       11.8721147137      -13.6684829390  SYS       7               0.0000000000
       222         7  MOL       H6             -6.7513532047       10.7324042684      -12.2946525477  SYS       7               0.0000000000
       223         7  MOL       C7            -10.0015500125       12.5595124012      -13.0290526679  SYS       7               0.0000000000
       224         7  MOL       C8            -10.9114846301       11.8235789871      -10.8868945404  SYS       7               0.0000000000
       225         7  MOL       C9             -9.5051016451       10.4452202774       -9.3820192736  SYS       7               0.0000000000
       226         7  MOL       H10            -7.6474371761       10.0186105831      -10.1278629526  SYS       7               0.0000000000
       227         7  MOL       C11            -6.6910331054       11.8855384958      -14.6525237696  SYS       7               0.0000000000
       228         7  MOL       C12            -8.9626769204       12.5712923673      -13.9491395165  SYS       7               0.0000000000
       229         7  MOL       H13           -10.8127732297       13.0161625349      -13.2188568786  SYS       7               0.0000000000
       230         7  MOL       H14           -11.7269203430       12.2731163888      -11.0748608070  SYS       7               0.0000000000
       231         7  MOL       C15           -10.7606712546       11.1297729937       -9.6789417061  SYS       7               0.0000000000
       232         7  MOL       C16            -9.3555276017        9.7760355153       -8.1508246442  SYS       7               0.0000000000
       233         7  MOL       C17            -6.8709392658       12.5346739505      -15.8269932891  SYS       7               0.0000000000
       234         7  MOL       H18            -5.8764230584       11.4276405880      -14.4825298131  SYS       7               0.0000000000
       235         7  MOL       C19            -9.0945835413       13.2621474356      -15.1910854719  SYS       7               0.0000000000
       236         7  MOL       C20           -11.8152834113       11.0913613370       -8.7334702725  SYS       7               0.0000000000
       237         7  MOL       C21           -10.3890926487        9.7776126711       -7.2247054958  SYS       7               0.0000000000
       238         7  MOL       H22            -8.5371073204        9.3366122523       -7.9514919265  SYS       7               0.0000000000
       239         7  MOL       C23            -8.0857642111       13.2401240569      -16.0965319655  SYS       7               0.0000000000
       240         7  MOL       H24            -6.1836983375       12.5228821920      -16.4823434165  SYS       7               0.0000000000
       241         7  MOL       H25            -9.8984051222       13.7315097789      -15.3829360115  SYS       7               0.0000000000
       242         7  MOL       H26           -12.6358430904       11.5304825207       -8.9248053224  SYS       7               0.0000000000
       243         7  MOL       C27           -11.6423280782       10.4306034639       -7.5303681414  SYS       7               0.0000000000
       244         7  MOL       C28           -10.2317629719        9.1530340948       -5.9510262548  SYS       7               0.0000000000
       245         7  MOL       H29            -8.1816595665       13.6952994929      -16.9250090503  SYS       7               0.0000000000
       246         7  MOL       C30           -12.6941692923       10.3930489804       -6.5621754314  SYS       7               0.0000000000
       247         7  MOL       C31           -11.2500114272        9.1656756101       -5.0560150141  SYS       7               0.0000000000
       248         7  MOL       H32            -9.4085272467        8.7318976058       -5.7315638087  SYS       7               0.0000000000
       249         7  MOL       C33           -12.5053462694        9.7737017684       -5.3731099815  SYS       7               0.0000000000
       250         7  MOL       H34           -13.5253936649       10.8112196691       -6.7528512798  SYS       7               0.0000000000
       251         7  MOL       H35           -11.1383804894        8.7673421245       -4.2006648795  SYS       7               0.0000000000
       252         7  MOL       H36           -13.2101709652        9.7460883767       -4.7371991625  SYS       7               0.0000000000
       253         8  MOL       C1              7.7978575207        2.1207461560        3.7755998912  SYS       8               0.0000000000
       254         8  MOL       C2              6.7519887669        2.0863038322        4.7308855871  SYS       8               0.0000000000
       255         8  MOL       C3              9.0533947474        1.4318998622        4.0625622856  SYS       8               0.0000000000
       256         8  MOL       C4              7.6382718930        2.8047621092        2.5631989326  SYS       8               0.0000000000
       257         8  MOL       C5              6.9212342866        1.4011583111        5.9208018984  SYS       8               0.0000000000
       258         8  MOL       H6              5.9356935034        2.5382379997        4.5515193802  SYS       8               0.0000000000
       259         8  MOL       C7              9.1986013060        0.7303395688        5.2761310181  SYS       8               0.0000000000
       260         8  MOL       C8             10.0987090447        1.4706892593        3.1323601787  SYS       8               0.0000000000
       261         8  MOL       C9              8.6750143089        2.8268783598        1.6229124911  SYS       8               0.0000000000
       262         8  MOL       H10             6.8186321752        3.2463256365        2.3746174597  SYS       8               0.0000000000
       263         8  MOL       C11             5.8843993417        1.3717911533        6.9053262977  SYS       8               0.0000000000
       264         8  MOL       C12             8.1597354976        0.7077660152        6.1960245758  SYS       8               0.0000000000
       265         8  MOL       H13            10.0129355145        0.2782135657        5.4634274688  SYS       8               0.0000000000
       266         8  MOL       H14            10.9170954783        1.0262179418        3.3195485288  SYS       8               0.0000000000
       267         8  MOL       C15             9.9369968381        2.1542995917        1.9200122379  SYS       8               0.0000000000
       268         8  MOL       C16             8.5130669610        3.4750725898        0.3820909297  SYS       8               0.0000000000
       269         8  MOL       C17             6.0676123420        0.7119369536        8.0732933973  SYS       8               0.0000000000
       270         8  MOL       H18             5.0663201959        1.8250006374        6.7394780440  SYS       8               0.0000000000
       271         8  MOL       C19             8.2970675492        0.0072271784        7.4319433099  SYS       8               0.0000000000
       272         8  MOL       C20            10.9865201887        2.1874310081        0.9686965337  SYS       8               0.0000000000
       273         8  MOL       C21             9.5393799117        3.4643919625       -0.5519987630  SYS       8               0.0000000000
       274         8  MOL       H22             7.6891059325        3.9030424995        0.1806757499  SYS       8               0.0000000000
       275         8  MOL       C23             7.2896150482        0.0175618287        8.3391188548  SYS       8               0.0000000000
       276         8  MOL       H24             5.3816785796        0.7116692541        8.7301173585  SYS       8               0.0000000000
       277         8  MOL       H25             9.1036396680       -0.4603880249        7.6163727388  SYS       8               0.0000000000
       278         8  MOL       H26            11.8104709527        1.7547195665        1.1600617201  SYS       8               0.0000000000
       279         8  MOL       C27            10.7995882749        2.8259464577       -0.2442848074  SYS       8               0.0000000000
       280         8  MOL       C28             9.3660062439        4.0573120573       -1.8386600174  SYS       8               0.0000000000
       281         8  MOL       H29             7.3916078193       -0.4382593752        9.1665119884  SYS       8               0.0000000000
       282         8  MOL       C30            11.8423709078        2.8477033325       -1.2227062130  SYS       8               0.0000000000
       283         8  MOL       C31            10.3737332281        4.0253948716       -2.7450277303  SYS       8               0.0000000000
       284         8  MOL       H32             8.5377786917        4.4675117055       -2.0600468645  SYS       8               0.0000000000
       285         8  MOL       C33            11.6355671516        3.4316994718       -2.4265759861  SYS       8               0.0000000000
       286         8  MOL       H34            12.6781863915        2.4395318996       -1.0304394217  SYS       8               0.0000000000
       287         8  MOL       H35            10.2499923247        4.4002459495       -3.6092787022  SYS       8               0.0000000000
       288         8  MOL       H36            12.3327115566        3.4421634819       -3.0714039503  SYS       8               0.0000000000
       289         9  MOL       C1              9.6230152259       -5.4763926154        0.6686459786  SYS       9               0.0000000000
       290         9  MOL       C2             10.6727183050       -5.4341656405       -0.2821109919  SYS       9               0.0000000000
       291         9  MOL       C3              8.3582894247       -4.8076698833        0.3745219587  SYS       9               0.0000000000
       292         9  MOL       C4              9.7886847304       -6.1604964301        1.8801809757  SYS       9               0.0000000000
       293         9  MOL       C5             10.4888072881       -4.7785948508       -1.4864253017  SYS       9               0.0000000000
       294         9  MOL       H6             11.4978493158       -5.8654422995       -0.0926012014  SYS       9               0.0000000000
       295         9  MOL       C7              8.1965802825       -4.1474588853       -0.8599789415  SYS       9               0.0000000000
       296         9  MOL       C8              7.3204759567       -4.8390873288        1.3133609650  SYS       9               0.0000000000
       297         9  MOL       C9              8.7454982679       -6.2016997725        2.8126651978  SYS       9               0.0000000000
       298         9  MOL       H10            10.6102837774       -6.5993522487        2.0665439803  SYS       9               0.0000000000
       299         9  MOL       C11            11.5366647231       -4.7350984572       -2.4586805503  SYS       9               0.0000000000
       300         9  MOL       C12             9.2283022501       -4.1378581631       -1.7881025754  SYS       9               0.0000000000
       301         9  MOL       H13             7.3721765783       -3.7190482853       -1.0586268294  SYS       9               0.0000000000
       302         9  MOL       H14             6.4988278935       -4.4003516698        1.1269311709  SYS       9               0.0000000000
       303         9  MOL       C15             7.4847888129       -5.5224526514        2.5254973433  SYS       9               0.0000000000
       304         9  MOL       C16             8.9008714013       -6.8932497113        4.0307123039  SYS       9               0.0000000000
       305         9  MOL       C17            11.3394712521       -4.1157807413       -3.6464019054  SYS       9               0.0000000000
       306         9  MOL       H18            12.3713095975       -5.1477954883       -2.2710451000  SYS       9               0.0000000000
       307         9  MOL       C19             9.0633116847       -3.5139292988       -3.0611307560  SYS       9               0.0000000000
       308         9  MOL       C20             6.4404598274       -5.5630905812        3.4822230230  SYS       9               0.0000000000
       309         9  MOL       C21             7.8661878288       -6.9154084400        4.9553175159  SYS       9               0.0000000000
       310         9  MOL       H22             9.7197411890       -7.3367486587        4.2188586869  SYS       9               0.0000000000
       311         9  MOL       C23            10.0800394785       -3.5133896561       -3.9579580132  SYS       9               0.0000000000
       312         9  MOL       H24            12.0420502295       -4.0840895914       -4.2846035697  SYS       9               0.0000000000
       313         9  MOL       H25             8.2353502748       -3.1008442906       -3.2781041711  SYS       9               0.0000000000
       314         9  MOL       H26             5.6203703576       -5.1181289002        3.3027318870  SYS       9               0.0000000000
       315         9  MOL       C27             6.6195827442       -6.2381927037        4.6764262805  SYS       9               0.0000000000
       316         9  MOL       C28             8.0167408194       -7.5969776379        6.2002701757  SYS       9               0.0000000000
       317         9  MOL       H29             9.9642175879       -3.1097584201       -4.8102619458  SYS       9               0.0000000000
       318         9  MOL       C30             5.5852653345       -6.2704911244        5.6635036675  SYS       9               0.0000000000
       319         9  MOL       C31             7.0124562571       -7.5874220577        7.1109600604  SYS       9               0.0000000000
       320         9  MOL       H32             8.8297805276       -8.0517124083        6.3884709246  SYS       9               0.0000000000
       321         9  MOL       C33             5.7810248494       -6.9121225133        6.8395602729  SYS       9               0.0000000000
       322         9  MOL       H34             4.7613049658       -5.8292190841        5.4946064357  SYS       9               0.0000000000
       323         9  MOL       H35             7.1220449361       -8.0315474775        7.9437252391  SYS       9               0.0000000000
       324         9  MOL       H36             5.0966831537       -6.9117845344        7.4980428278  SYS       9               0.0000000000
       325        10  MOL       C1             -8.1012687213       -0.7753183580      -11.3579521534  SYS       10              0.0000000000
       326        10  MOL       C2             -9.1233926373       -1.3903566251      -10.5963290449  SYS       10              0.0000000000
       327        10  MOL       C3             -6.9241497728       -0.2465039410      -10.6848016595  SYS       10              0.0000000000
       328        10  MOL       C4             -8.2149826763       -0.6767783972      -12.7525254049  SYS       10              0.0000000000
       329        10  MOL       C5             -8.9990706684       -1.4764106207       -9.2145784746  SYS       10              0.0000000000
       330        10  MOL       H6             -9.8916955074       -1.7435280092      -11.0302130869  SYS       10              0.0000000000
       331        10  MOL       C7             -6.8208654587       -0.3413625429       -9.2863440619  SYS       10              0.0000000000
       332        10  MOL       C8             -5.9067099366        0.3585505494      -11.4345577354  SYS       10              0.0000000000
       333        10  MOL       C9             -7.2032774255       -0.0618384448      -13.5019987317  SYS       10              0.0000000000
       334        10  MOL       H10            -8.9827752993       -1.0228669760      -13.1905649709  SYS       10              0.0000000000
       335        10  MOL       C11           -10.0218056337       -2.1074613916       -8.4170972723  SYS       10              0.0000000000
       336        10  MOL       C12            -7.8320278180       -0.9450335779       -8.5510315899  SYS       10              0.0000000000
       337        10  MOL       H13            -6.0558530681        0.0103927013       -8.8452293014  SYS       10              0.0000000000
       338        10  MOL       H14            -5.1402660531        0.7075578304      -10.9964719439  SYS       10              0.0000000000
       339        10  MOL       C15            -6.0233188823        0.4603624860      -12.8286568212  SYS       10              0.0000000000
       340        10  MOL       C16            -7.3173768998        0.0597528642      -14.8975438980  SYS       10              0.0000000000
       341        10  MOL       C17            -9.8832900166       -2.1877707976       -7.0731139293  SYS       10              0.0000000000
       342        10  MOL       H18           -10.7901828502       -2.4697689330       -8.8412912216  SYS       10              0.0000000000
       343        10  MOL       C19            -7.7404699162       -1.0519619401       -7.1205228644  SYS       10              0.0000000000
       344        10  MOL       C20            -5.0023615164        1.0813941527      -13.5869739478  SYS       10              0.0000000000
       345        10  MOL       C21            -6.3186711821        0.6887659784      -15.6286265561  SYS       10              0.0000000000
       346        10  MOL       H22            -8.0871119345       -0.2807731813      -15.3392541196  SYS       10              0.0000000000
       347        10  MOL       C23            -8.7368427721       -1.6493549185       -6.4184555073  SYS       10              0.0000000000
       348        10  MOL       H24           -10.5567107111       -2.6114231668       -6.5541217243  SYS       10              0.0000000000
       349        10  MOL       H25            -6.9795612855       -0.7011949050       -6.6719673709  SYS       10              0.0000000000
       350        10  MOL       H26            -4.2312792898        1.4280364762      -13.1527551341  SYS       10              0.0000000000
       351        10  MOL       C27            -5.1446143158        1.2034281168      -14.9642784685  SYS       10              0.0000000000
       352        10  MOL       C28            -6.4334117019        0.8498672783      -17.0523725734  SYS       10              0.0000000000
       353        10  MOL       H29            -8.6723055673       -1.7200078037       -5.4728967914  SYS       10              0.0000000000
       354        10  MOL       C30            -4.1340802445        1.8636379985      -15.7536655454  SYS       10              0.0000000000
       355        10  MOL       C31            -5.4590905161        1.4915066932      -17.7462982742  SYS       10              0.0000000000
       356        10  MOL       H32            -7.2004654021        0.5139121697      -17.5017991842  SYS       10              0.0000000000
       357        10  MOL       C33            -4.3030692654        2.0057208147      -17.0890241331  SYS       10              0.0000000000
       358        10  MOL       H34            -3.3597386523        2.2121688869      -15.3287748164  SYS       10              0.0000000000
       359        10  MOL       H35            -5.5456950835        1.6042518757      -18.6859930855  SYS       10              0.0000000000
       360        10  MOL       H36            -3.6412101769        2.4616366421      -17.5953965089  SYS       10              0.0000000000
       361        11  MOL       C1             -7.5475820224        4.5628565984        3.5747469270  SYS       11              0.0000000000
       362        11  MOL       C2             -8.5639858995        3.9406881251        4.3382314535  SYS       11              0.0000000000
       363        11  MOL       C3             -6.3597470174        5.0758522595        4.2412817980  SYS       11              0.0000000000
       364        11  MOL       C4             -7.6769377552        4.6740891607        2.1824933882  SYS       11              0.0000000000
       365        11  MOL       C5             -8.4132059844        3.8153917760        5.7143354070  SYS       11              0.0000000000
       366        11  MOL       H6             -9.3399961008        3.6001499161        3.9079796961  SYS       11              0.0000000000
       367        11  MOL       C7             -6.2322162421        4.9426566387        5.6346030926  SYS       11              0.0000000000
       368        11  MOL       C8             -5.3541641240        5.6953160813        3.4873079861  SYS       11              0.0000000000
       369        11  MOL       C9             -6.6624733330        5.2785279714        1.4282225085  SYS       11              0.0000000000
       370        11  MOL       H10            -8.4491430413        4.3306563436        1.7501574658  SYS       11              0.0000000000
       371        11  MOL       C11            -9.4263414753        3.1645036717        6.5081170205  SYS       11              0.0000000000
       372        11  MOL       C12            -7.2299992933        4.3186062563        6.3711779415  SYS       11              0.0000000000
       373        11  MOL       H13            -5.4560485249        5.2751017669        6.0711827828  SYS       11              0.0000000000
       374        11  MOL       H14            -4.5816308170        6.0384388978        3.9193039259  SYS       11              0.0000000000
       375        11  MOL       C15            -5.4795830460        5.8032360455        2.0944336517  SYS       11              0.0000000000
       376        11  MOL       C16            -6.7778591012        5.3754879324        0.0308555815  SYS       11              0.0000000000
       377        11  MOL       C17            -9.2560949728        3.0299599521        7.8440966087  SYS       11              0.0000000000
       378        11  MOL       H18           -10.2049342301        2.8214720508        6.0865326052  SYS       11              0.0000000000
       379        11  MOL       C19            -7.1095512727        4.1542167625        7.7940764133  SYS       11              0.0000000000
       380        11  MOL       C20            -4.4639342457        6.4205220185        1.3259971334  SYS       11              0.0000000000
       381        11  MOL       C21            -5.7687276942        5.9754926076       -0.7102251474  SYS       11              0.0000000000
       382        11  MOL       H22            -7.5463249969        5.0257366790       -0.4058275681  SYS       11              0.0000000000
       383        11  MOL       C23            -8.0906066242        3.5307150329        8.4950127469  SYS       11              0.0000000000
       384        11  MOL       H24            -9.9244289435        2.5880026465        8.3543250859  SYS       11              0.0000000000
       385        11  MOL       H25            -6.3352679747        4.4792613686        8.2391077015  SYS       11              0.0000000000
       386        11  MOL       H26            -3.6929758793        6.7733740237        1.7554076021  SYS       11              0.0000000000
       387        11  MOL       C27            -4.5980971917        6.5089122307       -0.0546850769  SYS       11              0.0000000000
       388        11  MOL       C28            -5.8676903208        6.0774734516       -2.1406020280  SYS       11              0.0000000000
       389        11  MOL       H29            -8.0044625968        3.4209553403        9.4351032532  SYS       11              0.0000000000
       390        11  MOL       C30            -3.5805679397        7.1402715926       -0.8585555247  SYS       11              0.0000000000
       391        11  MOL       C31            -4.8757566584        6.6749896773       -2.8488235994  SYS       11              0.0000000000
       392        11  MOL       H32            -6.6302643184        5.7242946751       -2.5844118266  SYS       11              0.0000000000
       393        11  MOL       C33            -3.7287855866        7.2210725216       -2.2014740431  SYS       11              0.0000000000
       394        11  MOL       H34            -2.8099242605        7.5032961912       -0.4391127176  SYS       11              0.0000000000
       395        11  MOL       H35            -4.9457326677        6.7424392602       -3.7942293745  SYS       11              0.0000000000
       396        11  MOL       H36            -3.0608443757        7.6482754704       -2.7246201674  SYS       11              0.0000000000
       397        12  MOL       C1             -5.7698585241        8.0473628943      -11.5791396901  SYS       12              0.0000000000
       398        12  MOL       C2             -4.7451676955        8.6674189360      -12.3332075467  SYS       12              0.0000000000
       399        12  MOL       C3             -6.9485994719        7.5295118405      -12.2579514227  SYS       12              0.0000000000
       400        12  MOL       C4             -5.6569127674        7.9391276781      -10.1852229230  SYS       12              0.0000000000
       401        12  MOL       C5             -4.8771774396        8.7828960138      -13.7120963379  SYS       12              0.0000000000
       402        12  MOL       H6             -3.9755667733        9.0117949656      -11.8945798575  SYS       12              0.0000000000
       403        12  MOL       C7             -7.0572569354        7.6519961552      -13.6538527724  SYS       12              0.0000000000
       404        12  MOL       C8             -7.9633353819        6.9124166040      -11.5143699336  SYS       12              0.0000000000
       405        12  MOL       C9             -6.6755094929        7.3280034201       -9.4419889298  SYS       12              0.0000000000
       406        12  MOL       H10            -4.8902185784        8.2840608869       -9.7443572161  SYS       12              0.0000000000
       407        12  MOL       C11            -3.8551362010        9.4293311623      -14.4980615988  SYS       12              0.0000000000
       408        12  MOL       C12            -6.0500318440        8.2716759764      -14.3812089083  SYS       12              0.0000000000
       409        12  MOL       H13            -7.8262451830        7.3139999880      -14.0987950032  SYS       12              0.0000000000
       410        12  MOL       H14            -8.7306796160        6.5679963758      -11.9545051532  SYS       12              0.0000000000
       411        12  MOL       C15            -7.8514429977        6.8033343111      -10.1204342398  SYS       12              0.0000000000
       412        12  MOL       C16            -6.5699362409        7.2195846276       -8.0446882780  SYS       12              0.0000000000
       413        12  MOL       C17            -4.0082896349        9.5553109706      -15.8369419098  SYS       12              0.0000000000
       414        12  MOL       H18            -3.0824509375        9.7759535696      -14.0686187255  SYS       12              0.0000000000
       415        12  MOL       C19            -6.1501994991        8.4208685249      -15.8073504491  SYS       12              0.0000000000
       416        12  MOL       C20            -8.8717669740        6.1788016376       -9.3641425980  SYS       12              0.0000000000
       417        12  MOL       C21            -7.5786382098        6.6037231561       -7.3161366674  SYS       12              0.0000000000
       418        12  MOL       H22            -5.8046692232        7.5663208034       -7.6000554554  SYS       12              0.0000000000
       419        12  MOL       C23            -5.1623746037        9.0435145422      -16.4994846051  SYS       12              0.0000000000
       420        12  MOL       H24            -3.3366856286        9.9968453393      -16.3432275245  SYS       12              0.0000000000
       421        12  MOL       H25            -6.9157942098        8.0863033909      -16.2602879589  SYS       12              0.0000000000
       422        12  MOL       H26            -9.6386176834        5.8268203411       -9.8015484105  SYS       12              0.0000000000
       423        12  MOL       C27            -8.7447687762        6.0755289701       -7.9838157940  SYS       12              0.0000000000
       424        12  MOL       C28            -7.4809093875        6.4740297357       -5.8879208481  SYS       12              0.0000000000
       425        12  MOL       H29            -5.2354831330        9.1433873384      -17.4417789954  SYS       12              0.0000000000
       426        12  MOL       C30            -9.7619124736        5.4265672902       -7.1935907723  SYS       12              0.0000000000
       427        12  MOL       C31            -8.4687999303        5.8540960257       -5.1934496153  SYS       12              0.0000000000
       428        12  MOL       H32            -6.7200468715        6.8206007846       -5.4360378686  SYS       12              0.0000000000
       429        12  MOL       C33            -9.6143932196        5.3191820695       -5.8524592016  SYS       12              0.0000000000
       430        12  MOL       H34           -10.5302901088        5.0681131344       -7.6210451391  SYS       12              0.0000000000
       431        12  MOL       H35            -8.3975430533        5.7638298330       -4.2500448039  SYS       12              0.0000000000
       432        12  MOL       H36           -10.2813425385        4.8794099870       -5.3385440259  SYS       12              0.0000000000
       433        13  MOL       C1             -5.3619391585        8.5205065162       16.7686522846  SYS       13              0.0000000000
       434        13  MOL       C2             -4.3774300440        9.1528923104       15.9724682118  SYS       13              0.0000000000
       435        13  MOL       C3             -6.5736779262        8.0130269918       16.1421229891  SYS       13              0.0000000000
       436        13  MOL       C4             -5.1769854606        8.3847713708       18.1524310390  SYS       13              0.0000000000
       437        13  MOL       C5             -4.5783668947        9.2869335899       14.6036171766  SYS       13              0.0000000000
       438        13  MOL       H6             -3.5854881654        9.4894214838       16.3760160471  SYS       13              0.0000000000
       439        13  MOL       C7             -6.7544045527        8.1571014641       14.7557861525  SYS       13              0.0000000000
       440        13  MOL       C8             -7.5503021171        7.3831937354       16.9250177023  SYS       13              0.0000000000
       441        13  MOL       C9             -6.1522310989        7.7525893025       18.9351510858  SYS       13              0.0000000000
       442        13  MOL       H10            -4.3874879811        8.7204643782       18.5588364871  SYS       13              0.0000000000
       443        13  MOL       C11            -3.5944633912        9.9384313906       13.7743569047  SYS       13              0.0000000000
       444        13  MOL       C12            -5.7838081778        8.7853795660       13.9871758958  SYS       13              0.0000000000
       445        13  MOL       H13            -7.5452121885        7.8256987860       14.3454771480  SYS       13              0.0000000000
       446        13  MOL       H14            -8.3394671046        7.0464296331       16.5188526851  SYS       13              0.0000000000
       447        13  MOL       C15            -7.3621801282        7.2418552585       18.3078080195  SYS       13              0.0000000000
       448        13  MOL       C16            -5.9689395837        7.6024063656       20.3205025576  SYS       13              0.0000000000
       449        13  MOL       C17            -3.8120043536       10.0732076697       12.4452825499  SYS       13              0.0000000000
       450        13  MOL       H18            -2.7998542721       10.2783595956       14.1676201263  SYS       13              0.0000000000
       451        13  MOL       C19            -5.9578090195        8.9552527539       12.5704760406  SYS       13              0.0000000000
       452        13  MOL       C20            -8.3381613464        6.5914474590       19.0999629510  SYS       13              0.0000000000
       453        13  MOL       C21            -6.9282255533        6.9513307688       21.0843241448  SYS       13              0.0000000000
       454        13  MOL       H22            -5.1801605654        7.9374077536       20.7317927974  SYS       13              0.0000000000
       455        13  MOL       C23            -5.0023863773        9.5793215439       11.8354648225  SYS       13              0.0000000000
       456        13  MOL       H24            -3.1609508870       10.5094356005       11.9084732293  SYS       13              0.0000000000
       457        13  MOL       H25            -6.7481263312        8.6315635843       12.1535283868  SYS       13              0.0000000000
       458        13  MOL       H26            -9.1264765011        6.2477711100       18.6953391094  SYS       13              0.0000000000
       459        13  MOL       C27            -8.1271006938        6.4375031565       20.4651920147  SYS       13              0.0000000000
       460        13  MOL       C28            -6.7447897780        6.7616194773       22.4973112703  SYS       13              0.0000000000
       461        13  MOL       H29            -5.1228108098        9.6921553578       10.8995136365  SYS       13              0.0000000000
       462        13  MOL       C30            -9.0871062014        5.7384373215       21.2836567202  SYS       13              0.0000000000
       463        13  MOL       C31            -7.6766373899        6.0910377621       23.2215460036  SYS       13              0.0000000000
       464        13  MOL       H32            -5.9615362293        7.0974284870       22.9179865080  SYS       13              0.0000000000
       465        13  MOL       C33            -8.8506068292        5.5668609193       22.6052303754  SYS       13              0.0000000000
       466        13  MOL       H34            -9.8741789549        5.3853130636       20.8868815601  SYS       13              0.0000000000
       467        13  MOL       H35            -7.5490594795        5.9611681425       24.1543353114  SYS       13              0.0000000000
       468        13  MOL       H36            -9.4757416696        5.0831392144       23.1320599476  SYS       13              0.0000000000
       469        14  MOL       C1             -7.6633174225       -0.3647012223       17.1079898471  SYS       14              0.0000000000
       470        14  MOL       C2             -8.6254731621       -1.0152122243       17.9167981444  SYS       14              0.0000000000
       471        14  MOL       C3             -6.4480953925        0.1570684305       17.7157538643  SYS       14              0.0000000000
       472        14  MOL       C4             -7.8741157759       -0.2241873005       15.7283901162  SYS       14              0.0000000000
       473        14  MOL       C5             -8.3991287809       -1.1537529460       19.2812286201  SYS       14              0.0000000000
       474        14  MOL       H6             -9.4186923887       -1.3631528433       17.5256264901  SYS       14              0.0000000000
       475        14  MOL       C7             -6.2476079760        0.0157481499       19.0996551529  SYS       14              0.0000000000
       476        14  MOL       C8             -5.4913413080        0.7976750476       16.9172216666  SYS       14              0.0000000000
       477        14  MOL       C9             -6.9220910369        0.4239616928       14.9302919682  SYS       14              0.0000000000
       478        14  MOL       H10            -8.6666004034       -0.5659670295       15.3330216972  SYS       14              0.0000000000
       479        14  MOL       C11            -9.3528329280       -1.8350076482       20.1217811475  SYS       14              0.0000000000
       480        14  MOL       C12            -7.1942411265       -0.6320518820       19.8818272624  SYS       14              0.0000000000
       481        14  MOL       H13            -5.4570364889        0.3613236473       19.4985689560  SYS       14              0.0000000000
       482        14  MOL       H14            -4.6998616778        1.1412987363       17.3130047198  SYS       14              0.0000000000
       483        14  MOL       C15            -5.7045487391        0.9401340174       15.5381917389  SYS       14              0.0000000000
       484        14  MOL       C16            -7.1314801721        0.5871028376       13.5501142320  SYS       14              0.0000000000
       485        14  MOL       C17            -9.1062941187       -1.9824934658       21.4444277200  SYS       14              0.0000000000
       486        14  MOL       H18           -10.1462718232       -2.1905382707       19.7401222629  SYS       14              0.0000000000
       487        14  MOL       C19            -6.9953220976       -0.8022318304       21.2952068018  SYS       14              0.0000000000
       488        14  MOL       C20            -4.7443313368        1.5975728955       14.7326883161  SYS       14              0.0000000000
       489        14  MOL       C21            -6.1907506865        1.2482518198       12.7719995439  SYS       14              0.0000000000
       490        14  MOL       H22            -7.9269564391        0.2513176787       13.1525922082  SYS       14              0.0000000000
       491        14  MOL       C23            -7.9226221169       -1.4562797021       22.0401040068  SYS       14              0.0000000000
       492        14  MOL       H24            -9.7298908736       -2.4501770086       21.9873170988  SYS       14              0.0000000000
       493        14  MOL       H25            -6.2074209209       -0.4604209995       21.7021448641  SYS       14              0.0000000000
       494        14  MOL       H26            -3.9491657651        1.9414202332       15.1235276479  SYS       14              0.0000000000
       495        14  MOL       C27            -4.9800343347        1.7568544077       13.3721114793  SYS       14              0.0000000000
       496        14  MOL       C28            -6.4017175385        1.4498753015       11.3645150387  SYS       14              0.0000000000
       497        14  MOL       H29            -7.7862400664       -1.5705848273       22.9736844473  SYS       14              0.0000000000
       498        14  MOL       C30            -4.0309222206        2.4517877645       12.5375805248  SYS       14              0.0000000000
       499        14  MOL       C31            -5.4794798120        2.1175873327       10.6254791959  SYS       14              0.0000000000
       500        14  MOL       H32            -7.1949802989        1.1210944054       10.9572574014  SYS       14              0.0000000000
       501        14  MOL       C33            -4.2879153957        2.6267035766       11.2202778609  SYS       14              0.0000000000
       502        14  MOL       H34            -3.2345056484        2.7989445492       12.9207431522  SYS       14              0.0000000000
       503        14  MOL       H35            -5.6243410944        2.2550330881        9.6963064411  SYS       14              0.0000000000
       504        14  MOL       H36            -3.6666462455        3.1043423936       10.6834208420  SYS       14              0.0000000000
       505        15  MOL       C1             -5.9839801947       -6.6925714047       14.4111128320  SYS       15              0.0000000000
       506        15  MOL       C2             -5.0150834740       -6.0452351259       13.6078233394  SYS       15              0.0000000000
       507        15  MOL       C3             -7.1989892022       -7.2053765417       13.7953455997  SYS       15              0.0000000000
       508        15  MOL       C4             -5.7821394706       -6.8344093489       15.7919161830  SYS       15              0.0000000000
       509        15  MOL       C5             -5.2376229238       -5.8972495494       12.2437587006  SYS       15              0.0000000000
       510        15  MOL       H6             -4.2221737551       -5.7022834022       14.0039962458  SYS       15              0.0000000000
       511        15  MOL       C7             -7.3967626471       -7.0561944068       12.4118790069  SYS       15              0.0000000000
       512        15  MOL       C8             -8.1645131920       -7.8418472228       14.5865961458  SYS       15              0.0000000000
       513        15  MOL       C9             -6.7467741435       -7.4719298378       16.5834062222  SYS       15              0.0000000000
       514        15  MOL       H10            -4.9898539923       -6.4963647460       16.1908786552  SYS       15              0.0000000000
       515        15  MOL       C11            -4.2784181517       -5.2137400293       11.4113350807  SYS       15              0.0000000000
       516        15  MOL       C12            -6.4442631363       -6.4079382831       11.6372428630  SYS       15              0.0000000000
       517        15  MOL       H13            -8.1893995391       -7.3923202750       12.0090091902  SYS       15              0.0000000000
       518        15  MOL       H14            -8.9565447997       -8.1804039729       14.1875638844  SYS       15              0.0000000000
       519        15  MOL       C15            -7.9619744020       -7.9838502507       15.9672803085  SYS       15              0.0000000000
       520        15  MOL       C16            -6.5496443964       -7.6253370195       17.9665025851  SYS       15              0.0000000000
       521        15  MOL       C17            -4.5249607009       -5.0512488288       10.0904487259  SYS       15              0.0000000000
       522        15  MOL       H18            -3.4837800323       -4.8662871428       11.7979066310  SYS       15              0.0000000000
       523        15  MOL       C19            -6.6424579659       -6.2203268034       10.2259695172  SYS       15              0.0000000000
       524        15  MOL       C20            -8.9309123449       -8.6343612204       16.7679511791  SYS       15              0.0000000000
       525        15  MOL       C21            -7.5017730899       -8.2763256634       18.7393008635  SYS       15              0.0000000000
       526        15  MOL       H22            -5.7569740383       -7.2906091889       18.3704690805  SYS       15              0.0000000000
       527        15  MOL       C23            -5.7131699950       -5.5602676461        9.4888931534  SYS       15              0.0000000000
       528        15  MOL       H24            -3.8962349026       -4.5819726710        9.5548990748  SYS       15              0.0000000000
       529        15  MOL       H25            -7.4327031218       -6.5519514591        9.8151664334  SYS       15              0.0000000000
       530        15  MOL       H26            -9.7229784697       -8.9775847622       16.3703288090  SYS       15              0.0000000000
       531        15  MOL       C27            -8.7069523708       -8.7884647318       18.1311055835  SYS       15              0.0000000000
       532        15  MOL       C28            -7.3065418486       -8.4659972088       20.1507119281  SYS       15              0.0000000000
       533        15  MOL       H29            -5.8521017129       -5.4297483253        8.5578180497  SYS       15              0.0000000000
       534        15  MOL       C30            -9.6618721618       -9.4843999532       18.9581427596  SYS       15              0.0000000000
       535        15  MOL       C31            -8.2334178348       -9.1341443443       20.8835257772  SYS       15              0.0000000000
       536        15  MOL       H32            -6.5192128078       -8.1308159796       20.5642188934  SYS       15              0.0000000000
       537        15  MOL       C33            -9.4133059949       -9.6568899509       20.2773809753  SYS       15              0.0000000000
       538        15  MOL       H34           -10.4534681089       -9.8353686171       18.5685177359  SYS       15              0.0000000000
       539        15  MOL       H35            -8.0990997301       -9.2635042531       21.8154393078  SYS       15              0.0000000000
       540        15  MOL       H36           -10.0341870619      -10.1407376974       20.8091024688  SYS       15              0.0000000000
       541        16  MOL       C1             -6.1132159358       -9.4116208470       -0.3118000229  SYS       16              0.0000000000
       542        16  MOL       C2             -5.0966069499       -8.7865998738       -1.0726771821  SYS       16              0.0000000000
       543        16  MOL       C3             -7.2865230313       -9.9486579917       -0.9850955109  SYS       16              0.0000000000
       544        16  MOL       C4             -5.9979696092       -9.5093888627        1.0827017633  SYS       16              0.0000000000
       545        16  MOL       C5             -5.2252236095       -8.6942491736       -2.4536279310  SYS       16              0.0000000000
       546        16  MOL       H6             -4.3310756652       -8.4282674062       -0.6381264097  SYS       16              0.0000000000
       547        16  MOL       C7             -7.3941541278       -9.8482692691       -2.3828390702  SYS       16              0.0000000000
       548        16  MOL       C8             -8.2984238157      -10.5629836652       -0.2353824621  SYS       16              0.0000000000
       549        16  MOL       C9             -7.0048501110      -10.1330860751        1.8314355712  SYS       16              0.0000000000
       550        16  MOL       H10            -5.2327313336       -9.1561401084        1.5194936689  SYS       16              0.0000000000
       551        16  MOL       C11            -4.2099357405       -8.0481048296       -3.2485343259  SYS       16              0.0000000000
       552        16  MOL       C12            -6.3895810585       -9.2320159626       -3.1167445499  SYS       16              0.0000000000
       553        16  MOL       H13            -8.1578972980      -10.2021180934       -2.8244784349  SYS       16              0.0000000000
       554        16  MOL       H14            -9.0633751187      -10.9163030757       -0.6726196509  SYS       16              0.0000000000
       555        16  MOL       C15            -8.1809918578      -10.6645519565        1.1586652900  SYS       16              0.0000000000
       556        16  MOL       C16            -6.8878341223      -10.2512012597        3.2270377667  SYS       16              0.0000000000
       557        16  MOL       C17            -4.3571802708       -7.9524199749       -4.5905815884  SYS       16              0.0000000000
       558        16  MOL       H18            -3.4427134242       -7.6844392597       -2.8234130649  SYS       16              0.0000000000
       559        16  MOL       C19            -6.4876186792       -9.1121853741       -4.5458005288  SYS       16              0.0000000000
       560        16  MOL       C20            -9.1966446934      -11.2903972783        1.9201415086  SYS       16              0.0000000000
       561        16  MOL       C21            -7.8810516871      -10.8867927524        3.9599052435  SYS       16              0.0000000000
       562        16  MOL       H22            -6.1201262748       -9.9042942289        3.6673082367  SYS       16              0.0000000000
       563        16  MOL       C23            -5.5015602805       -8.4950664077       -5.2453638471  SYS       16              0.0000000000
       564        16  MOL       H24            -3.6906972372       -7.5156362656       -5.1076405986  SYS       16              0.0000000000
       565        16  MOL       H25            -7.2471965822       -9.4648288924       -4.9951394308  SYS       16              0.0000000000
       566        16  MOL       H26            -9.9660747982      -11.6412465959        1.4863711316  SYS       16              0.0000000000
       567        16  MOL       C27            -9.0547641006      -11.4054787266        3.2980827274  SYS       16              0.0000000000
       568        16  MOL       C28            -7.7623175185      -11.0477595595        5.3833389667  SYS       16              0.0000000000
       569        16  MOL       H29            -5.5723900847       -8.4118253199       -6.1894465870  SYS       16              0.0000000000
       570        16  MOL       C30           -10.0663600749      -12.0585583019        4.0920277795  SYS       16              0.0000000000
       571        16  MOL       C31            -8.7372383723      -11.6837145355        6.0816414465  SYS       16              0.0000000000
       572        16  MOL       H32            -6.9931036713      -10.7130383647        5.8299856356  SYS       16              0.0000000000
       573        16  MOL       C33            -9.8989078188      -12.1905577615        5.4286141869  SYS       16              0.0000000000
       574        16  MOL       H34           -10.8422834805      -12.4056905021        3.6688813594  SYS       16              0.0000000000
       575        16  MOL       H35            -8.6492244212      -11.7946125785        7.0214250927  SYS       16              0.0000000000
       576        16  MOL       H36           -10.5651458662      -12.6346721875        5.9397099649  SYS       16              0.0000000000
       577        17  MOL       C1             -6.3647259357       -7.1706500229      -13.9687195313  SYS       17              0.0000000000
       578        17  MOL       C2             -5.3394267346       -6.5468675456      -14.7188768873  SYS       17              0.0000000000
       579        17  MOL       C3             -7.5368085997       -7.6968972142      -14.6525845790  SYS       17              0.0000000000
       580        17  MOL       C4             -6.2592796295       -7.2737117316      -12.5738235219  SYS       17              0.0000000000
       581        17  MOL       C5             -5.4650264293       -6.4363433186      -16.0987699815  SYS       17              0.0000000000
       582        17  MOL       H6             -4.5740187215       -6.1973513100      -14.2769904253  SYS       17              0.0000000000
       583        17  MOL       C7             -7.6379850036       -7.5818612733      -16.0496813789  SYS       17              0.0000000000
       584        17  MOL       C8             -8.5540804358       -8.3153880466      -13.9136420978  SYS       17              0.0000000000
       585        17  MOL       C9             -7.2817688453       -7.8829721782      -11.8344140384  SYS       17              0.0000000000
       586        17  MOL       H10            -5.4969017108       -6.9236782485      -12.1295061462  SYS       17              0.0000000000
       587        17  MOL       C11            -4.4425513081       -5.7867660726      -16.8815739866  SYS       17              0.0000000000
       588        17  MOL       C12            -6.6303269494       -6.9580944200      -16.7729327744  SYS       17              0.0000000000
       589        17  MOL       H13            -8.4019543475       -7.9266745045      -16.4980256656  SYS       17              0.0000000000
       590        17  MOL       H14            -9.3171522604       -8.6643788882      -14.3575883250  SYS       17              0.0000000000
       591        17  MOL       C15            -8.4513011170       -8.4148542738      -12.5182860902  SYS       17              0.0000000000
       592        17  MOL       C16            -7.1881198303       -7.9785295933      -10.4353257497  SYS       17              0.0000000000
       593        17  MOL       C17            -4.5871939527       -5.6717492194      -18.2223860443  SYS       17              0.0000000000
       594        17  MOL       H18            -3.6746190367       -5.4332340484      -16.4492477988  SYS       17              0.0000000000
       595        17  MOL       C19            -6.7234683759       -6.8169737289      -18.2003714949  SYS       17              0.0000000000
       596        17  MOL       C20            -9.4778081482       -9.0344450142      -11.7663089001  SYS       17              0.0000000000
       597        17  MOL       C21            -8.2068340893       -8.5817538986       -9.7101401871  SYS       17              0.0000000000
       598        17  MOL       H22            -6.4279908996       -7.6252115710       -9.9870754794  SYS       17              0.0000000000
       599        17  MOL       C23            -5.7342857986       -6.1931906772      -18.8895364265  SYS       17              0.0000000000
       600        17  MOL       H24            -3.9131954492       -5.2307884781      -18.7259824228  SYS       17              0.0000000000
       601        17  MOL       H25            -7.4844237480       -7.1581835952      -18.6561611584  SYS       17              0.0000000000
       602        17  MOL       H26           -10.2405072327       -9.3904534343      -12.2076962474  SYS       17              0.0000000000
       603        17  MOL       C27            -9.3656616793       -9.1188431403      -10.3834148527  SYS       17              0.0000000000
       604        17  MOL       C28            -8.1302472169       -8.6818459542       -8.2782576136  SYS       17              0.0000000000
       605        17  MOL       H29            -5.8045048721       -6.0999470568      -19.8327294310  SYS       17              0.0000000000
       606        17  MOL       C30           -10.3956079051       -9.7501487107       -9.5954731435  SYS       17              0.0000000000
       607        17  MOL       C31            -9.1344521503       -9.2769067341       -7.5854294326  SYS       17              0.0000000000
       608        17  MOL       H32            -7.3755817354       -8.3269065883       -7.8224950378  SYS       17              0.0000000000
       609        17  MOL       C33           -10.2710372742       -9.8242949571       -8.2497718972  SYS       17              0.0000000000
       610        17  MOL       H34           -11.1582887290      -10.1153974305      -10.0273552132  SYS       17              0.0000000000
       611        17  MOL       H35            -9.0790960484       -9.3440465254       -6.6390330607  SYS       17              0.0000000000
       612        17  MOL       H36           -10.9483108643      -10.2488020287       -7.7365235240  SYS       17              0.0000000000
       613        18  MOL       C1             -7.9007061513       -3.0459864853        2.3504704254  SYS       18              0.0000000000
       614        18  MOL       C2             -8.9199951800       -3.6759338683        3.1036604644  SYS       18              0.0000000000
       615        18  MOL       C3             -6.7286267568       -2.5159807039        3.0314322507  SYS       18              0.0000000000
       616        18  MOL       C4             -8.0095611905       -2.9428779848        0.9558397405  SYS       18              0.0000000000
       617        18  MOL       C5             -8.7848847588       -3.7953874614        4.4819100322  SYS       18              0.0000000000
       618        18  MOL       H6             -9.6857697834       -4.0279352689        2.6643895532  SYS       18              0.0000000000
       619        18  MOL       C7             -6.6186547964       -2.6376104350        4.4273053836  SYS       18              0.0000000000
       620        18  MOL       C8             -5.7166849048       -1.8908216373        2.2907847587  SYS       18              0.0000000000
       621        18  MOL       C9             -6.9911646105       -2.3298317796        0.2139154572  SYS       18              0.0000000000
       622        18  MOL       H10            -8.7712418763       -3.2965521831        0.5132128687  SYS       18              0.0000000000
       623        18  MOL       C11            -9.7974069207       -4.4571904636        5.2674058975  SYS       18              0.0000000000
       624        18  MOL       C12            -7.6162244252       -3.2758258348        5.1519351946  SYS       18              0.0000000000
       625        18  MOL       H13            -5.8534799310       -2.2919988234        4.8729711354  SYS       18              0.0000000000
       626        18  MOL       H14            -4.9540880964       -1.5388657440        2.7332038119  SYS       18              0.0000000000
       627        18  MOL       C15            -5.8229636695       -1.7922786348        0.8956254019  SYS       18              0.0000000000
       628        18  MOL       C16            -7.0859709408       -2.2352391537       -1.1851604597  SYS       18              0.0000000000
       629        18  MOL       C17            -9.6362159216       -4.5926803336        6.6044127449  SYS       18              0.0000000000
       630        18  MOL       H18           -10.5684007512       -4.8082882563        4.8385590202  SYS       18              0.0000000000
       631        18  MOL       C19            -7.5047888208       -3.4393162930        6.5756713596  SYS       18              0.0000000000
       632        18  MOL       C20            -4.8001826260       -1.1679106717        0.1425233755  SYS       18              0.0000000000
       633        18  MOL       C21            -6.0732986683       -1.6238697175       -1.9119855509  SYS       18              0.0000000000
       634        18  MOL       H22            -7.8448842869       -2.5925141566       -1.6323327110  SYS       18              0.0000000000
       635        18  MOL       C23            -8.4815058529       -4.0811317831        7.2660571098  SYS       18              0.0000000000
       636        18  MOL       H24           -10.3031660857       -5.0427763654        7.1093094707  SYS       18              0.0000000000
       637        18  MOL       H25            -6.7394735166       -3.1028151032        7.0276458105  SYS       18              0.0000000000
       638        18  MOL       H26            -4.0386166833       -0.8084534283        0.5830712951  SYS       18              0.0000000000
       639        18  MOL       C27            -4.9158360863       -1.0822376142       -1.2400033802  SYS       18              0.0000000000
       640        18  MOL       C28            -6.1540991200       -1.5169777819       -3.3431448938  SYS       18              0.0000000000
       641        18  MOL       H29            -8.3975585892       -4.1927166566        8.2061314713  SYS       18              0.0000000000
       642        18  MOL       C30            -3.8916252657       -0.4418704075       -2.0281087826  SYS       18              0.0000000000
       643        18  MOL       C31            -5.1581659603       -0.9088391449       -4.0365569689  SYS       18              0.0000000000
       644        18  MOL       H32            -6.9080343804       -1.8746382481       -3.7979878245  SYS       18              0.0000000000
       645        18  MOL       C33            -4.0218263110       -0.3601837980       -3.3728401074  SYS       18              0.0000000000
       646        18  MOL       H34            -3.1296357550       -0.0746041709       -1.5967176664  SYS       18              0.0000000000
       647        18  MOL       H35            -5.2165240865       -0.8363972802       -4.9823818146  SYS       18              0.0000000000
       648        18  MOL       H36            -3.3486272198        0.0713430008       -3.8855946873  SYS       18              0.0000000000
       649        19  MOL       C1              4.9586518628        5.2131086302        3.8900293292  SYS       19              0.0000000000
       650        19  MOL       C2              3.9425372843        4.5961356761        4.6581013418  SYS       19              0.0000000000
       651        19  MOL       C3              6.1450208179        5.7356013143        4.5517810492  SYS       19              0.0000000000
       652        19  MOL       C4              4.8272094004        5.3126366008        2.4970854728  SYS       19              0.0000000000
       653        19  MOL       C5              4.0913861100        4.4906667523        6.0360767252  SYS       19              0.0000000000
       654        19  MOL       H6              3.1666845135        4.2510908340        4.2311690121  SYS       19              0.0000000000
       655        19  MOL       C7              6.2711783981        5.6187608916        5.9466939523  SYS       19              0.0000000000
       656        19  MOL       C8              7.1487479133        6.3513775273        3.7923335692  SYS       19              0.0000000000
       657        19  MOL       C9              5.8377343817        5.9181001786        1.7383615335  SYS       19              0.0000000000
       658        19  MOL       H10             4.0550837627        4.9646038544        2.0683003542  SYS       19              0.0000000000
       659        19  MOL       C11             3.0713049787        3.8579939779        6.8356689675  SYS       19              0.0000000000
       660        19  MOL       C12             5.2723658117        5.0036457032        6.6893642213  SYS       19              0.0000000000
       661        19  MOL       H13             7.0450858395        5.9593931896        6.3809690086  SYS       19              0.0000000000
       662        19  MOL       H14             7.9199968863        6.7010601073        4.2213540634  SYS       19              0.0000000000
       663        19  MOL       C15             7.0205470361        6.4499552215        2.3990200741  SYS       19              0.0000000000
       664        19  MOL       C16             5.7149230312        6.0127524460        0.3414693673  SYS       19              0.0000000000
       665        19  MOL       C17             3.2303081769        3.7598490151        8.1761960629  SYS       19              0.0000000000
       666        19  MOL       H18             2.2937383194        3.5088381987        6.4172300560  SYS       19              0.0000000000
       667        19  MOL       C19             5.3862411445        4.8645101381        8.1154937336  SYS       19              0.0000000000
       668        19  MOL       C20             8.0310424959        7.0687829618        1.6250496511  SYS       19              0.0000000000
       669        19  MOL       C21             6.7130629148        6.6262458130       -0.4034434413  SYS       19              0.0000000000
       670        19  MOL       H22             4.9457119541        5.6594862160       -0.0910525442  SYS       19              0.0000000000
       671        19  MOL       C23             4.3965552003        4.2632575109        8.8236976591  SYS       19              0.0000000000
       672        19  MOL       H24             2.5483841185        3.3434384708        8.6899192293  SYS       19              0.0000000000
       673        19  MOL       H25             6.1587143822        5.1964626282        8.5585672089  SYS       19              0.0000000000
       674        19  MOL       H26             8.8025236136        7.4253124202        2.0504650911  SYS       19              0.0000000000
       675        19  MOL       C27             7.8860545736        7.1621828152        0.2457923167  SYS       19              0.0000000000
       676        19  MOL       C28             6.5946306864        6.7454880763       -1.8310031707  SYS       19              0.0000000000
       677        19  MOL       H29             4.4763348494        4.1757239132        9.7666776237  SYS       19              0.0000000000
       678        19  MOL       C30             8.8911006631        7.8076796070       -0.5625420011  SYS       19              0.0000000000
       679        19  MOL       C31             7.5709136146        7.3646006540       -2.5424151588  SYS       19              0.0000000000
       680        19  MOL       H32             5.8283868782        6.3938428841       -2.2696802176  SYS       19              0.0000000000
       681        19  MOL       C33             8.7231018058        7.9076747541       -1.9018346188  SYS       19              0.0000000000
       682        19  MOL       H34             9.6641964410        8.1710428543       -0.1479327162  SYS       19              0.0000000000
       683        19  MOL       H35             7.4855881683        7.4483440197       -3.4852538338  SYS       19              0.0000000000
       684        19  MOL       H36             9.3806623665        8.3477736355       -2.4274359452  SYS       19              0.0000000000
       685        20  MOL       C1              4.2776227259      -10.0584006288        1.5411595353  SYS       20              0.0000000000
       686        20  MOL       C2              3.2575802531      -10.6766305119        2.3029890887  SYS       20              0.0000000000
       687        20  MOL       C3              5.4588447177       -9.5366091033        2.2126009100  SYS       20              0.0000000000
       688        20  MOL       C4              4.1585723526       -9.9553293633        0.1473593832  SYS       20              0.0000000000
       689        20  MOL       C5              3.3978697139      -10.7885565003        3.6813530821  SYS       20              0.0000000000
       690        20  MOL       H6              2.4853284164      -11.0222781533        1.8700578106  SYS       20              0.0000000000
       691        20  MOL       C7              5.5761462671       -9.6552887513        3.6081312365  SYS       20              0.0000000000
       692        20  MOL       C8              6.4700346440       -8.9213732256        1.4626751311  SYS       20              0.0000000000
       693        20  MOL       C9              5.1720837160       -9.3438899969       -0.6025376432  SYS       20              0.0000000000
       694        20  MOL       H10             3.3898039713      -10.3018406743       -0.2886297974  SYS       20              0.0000000000
       695        20  MOL       C11             2.3809124419      -11.4326276606        4.4758078202  SYS       20              0.0000000000
       696        20  MOL       C12             4.5751889435      -10.2770344864        4.3423444865  SYS       20              0.0000000000
       697        20  MOL       H13             6.3474167519       -9.3155898533        4.0477952318  SYS       20              0.0000000000
       698        20  MOL       H14             7.2386786647       -8.5746307691        1.8986998111  SYS       20              0.0000000000
       699        20  MOL       C15             6.3508462294       -8.8166967163        0.0690064273  SYS       20              0.0000000000
       700        20  MOL       C16             5.0585425563       -9.2347929794       -1.9991605928  SYS       20              0.0000000000
       701        20  MOL       C17             2.5450951636      -11.5597692109        5.8132705008  SYS       20              0.0000000000
       702        20  MOL       H18             1.6032663613      -11.7761399632        4.0528696989  SYS       20              0.0000000000
       703        20  MOL       C19             4.6899855483      -10.4320934019        5.7667567040  SYS       20              0.0000000000
       704        20  MOL       C20             7.3675824318       -8.1929940076       -0.6927819217  SYS       20              0.0000000000
       705        20  MOL       C21             6.0590292764       -8.6115225452       -2.7327222495  SYS       20              0.0000000000
       706        20  MOL       H22             4.2906677970       -9.5814590687       -2.4393297598  SYS       20              0.0000000000
       707        20  MOL       C23             3.7084365251      -11.0565656747        6.4661362044  SYS       20              0.0000000000
       708        20  MOL       H24             1.8744197152      -11.9968381736        6.3246361429  SYS       20              0.0000000000
       709        20  MOL       H25             5.4607260527      -10.1011006805        6.2135501182  SYS       20              0.0000000000
       710        20  MOL       H26             8.1362356971       -7.8403336824       -0.2591028730  SYS       20              0.0000000000
       711        20  MOL       C27             7.2297965841       -8.0851830053       -2.0717263332  SYS       20              0.0000000000
       712        20  MOL       C28             5.9471442767       -8.4687478672       -4.1586496116  SYS       20              0.0000000000
       713        20  MOL       H29             3.7934081332      -11.1621154281        7.4068153265  SYS       20              0.0000000000
       714        20  MOL       C30             8.2394093240       -7.4299026619       -2.8663821507  SYS       20              0.0000000000
       715        20  MOL       C31             6.9238704896       -7.8354997169       -4.8568891537  SYS       20              0.0000000000
       716        20  MOL       H32             5.1820084333       -8.8124244611       -4.6054997096  SYS       20              0.0000000000
       717        20  MOL       C33             8.0756356009       -7.3061075255       -4.2042088627  SYS       20              0.0000000000
       718        20  MOL       H34             9.0113270338       -7.0743775919       -2.4428780063  SYS       20              0.0000000000
       719        20  MOL       H35             6.8418368315       -7.7350848318       -5.7983908649  SYS       20              0.0000000000
       720        20  MOL       H36             8.7357723582       -6.8578699571       -4.7196040693  SYS       20              0.0000000000
       721        21  MOL       C1              4.5554514294       -2.4475584875        2.7871423641  SYS       21              0.0000000000
       722        21  MOL       C2              3.5359767484       -3.0753310912        3.5418953401  SYS       21              0.0000000000
       723        21  MOL       C3              5.7356542479       -1.9299989605        3.4636323578  SYS       21              0.0000000000
       724        21  MOL       C4              4.4384573171       -2.3361949169        1.3938060615  SYS       21              0.0000000000
       725        21  MOL       C5              3.6822034666       -3.2110408797        4.9175030191  SYS       21              0.0000000000
       726        21  MOL       H6              2.7645870264       -3.4181316601        3.1051799241  SYS       21              0.0000000000
       727        21  MOL       C7              5.8556463390       -2.0673989592        4.8572149986  SYS       21              0.0000000000
       728        21  MOL       C8              6.7459457591       -1.3055948807        2.7201005976  SYS       21              0.0000000000
       729        21  MOL       C9              5.4558467852       -1.7247517327        0.6491821451  SYS       21              0.0000000000
       730        21  MOL       H10             3.6719099484       -2.6831397671        0.9542655376  SYS       21              0.0000000000
       731        21  MOL       C11             2.6729904129       -3.8791495891        5.7019186720  SYS       21              0.0000000000
       732        21  MOL       C12             4.8608271175       -2.7085209257        5.5830591928  SYS       21              0.0000000000
       733        21  MOL       H13             6.6270046379       -1.7324362789        5.3003451407  SYS       21              0.0000000000
       734        21  MOL       H14             7.5133609506       -0.9607712055        3.1597959767  SYS       21              0.0000000000
       735        21  MOL       C15             6.6309403452       -1.1966373780        1.3264085448  SYS       21              0.0000000000
       736        21  MOL       C16             5.3522107814       -1.6237162301       -0.7488167221  SYS       21              0.0000000000
       737        21  MOL       C17             2.8515560435       -4.0465692073        7.0330882206  SYS       21              0.0000000000
       738        21  MOL       H18             1.8944618961       -4.2163939309        5.2755732711  SYS       21              0.0000000000
       739        21  MOL       C19             4.9866289936       -2.8994303027        7.0021783569  SYS       21              0.0000000000
       740        21  MOL       C20             7.6519941089       -0.5749015237        0.5687985966  SYS       21              0.0000000000
       741        21  MOL       C21             6.3631062614       -1.0138287365       -1.4793507594  SYS       21              0.0000000000
       742        21  MOL       H22             4.5883844061       -1.9748757339       -1.1924541797  SYS       21              0.0000000000
       743        21  MOL       C23             4.0164978262       -3.5532241257        7.6906077062  SYS       21              0.0000000000
       744        21  MOL       H24             2.1908230486       -4.5082719406        7.5356737099  SYS       21              0.0000000000
       745        21  MOL       H25             5.7587928471       -2.5756945065        7.4518222185  SYS       21              0.0000000000
       746        21  MOL       H26             8.4183691802       -0.2216752268        1.0060343595  SYS       21              0.0000000000
       747        21  MOL       C27             7.5281956997       -0.4822134707       -0.8125698194  SYS       21              0.0000000000
       748        21  MOL       C28             6.2722840375       -0.9010005569       -2.9094531320  SYS       21              0.0000000000
       749        21  MOL       H29             4.1119974961       -3.6878612524        8.6265515119  SYS       21              0.0000000000
       750        21  MOL       C30             8.5520792740        0.1512498465       -1.6066571812  SYS       21              0.0000000000
       751        21  MOL       C31             7.2661337599       -0.2949715671       -3.6076847187  SYS       21              0.0000000000
       752        21  MOL       H32             5.5126878159       -1.2523098382       -3.3598050343  SYS       21              0.0000000000
       753        21  MOL       C33             8.4118226827        0.2411825383       -2.9498502198  SYS       21              0.0000000000
       754        21  MOL       H34             9.3206216466        0.5096028247       -1.1794142152  SYS       21              0.0000000000
       755        21  MOL       H35             7.2007714537       -0.2198305331       -4.5528406469  SYS       21              0.0000000000
       756        21  MOL       H36             9.0848770965        0.6694174709       -3.4655461122  SYS       21              0.0000000000
       757        22  MOL       C1              5.2052969618        7.8979624175       18.5063008573  SYS       22              0.0000000000
       758        22  MOL       C2              4.2351801596        7.2386417963       19.2982912474  SYS       22              0.0000000000
       759        22  MOL       C3              6.4124688332        8.4156372612       19.1333049235  SYS       22              0.0000000000
       760        22  MOL       C4              5.0123850928        8.0454493922       17.1248132011  SYS       22              0.0000000000
       761        22  MOL       C5              4.4457319319        7.0894127816       20.6641223099  SYS       22              0.0000000000
       762        22  MOL       H6              3.4484406050        6.8911710162       18.8938414866  SYS       22              0.0000000000
       763        22  MOL       C7              6.5986899100        8.2637158354       20.5180760207  SYS       22              0.0000000000
       764        22  MOL       C8              7.3807904213        9.0593522038       18.3513885281  SYS       22              0.0000000000
       765        22  MOL       C9              5.9796636667        8.6912615801       16.3433353351  SYS       22              0.0000000000
       766        22  MOL       H10             4.2250787304        7.7041398972       16.7188353905  SYS       22              0.0000000000
       767        22  MOL       C11             3.4839910652        6.3960546623       21.4854000433  SYS       22              0.0000000000
       768        22  MOL       C12             5.6413708857        7.6110349159       21.2829945219  SYS       22              0.0000000000
       769        22  MOL       H13             7.3853161110        8.6036320206       20.9294567806  SYS       22              0.0000000000
       770        22  MOL       H14             8.1686744817        9.3992880737       18.7573980995  SYS       22              0.0000000000
       771        22  MOL       C15             7.1898177925        9.2032561463       16.9692537207  SYS       22              0.0000000000
       772        22  MOL       C16             5.7904900355        8.8486200384       14.9595719734  SYS       22              0.0000000000
       773        22  MOL       C17             3.7141094825        6.2400958162       22.8100319513  SYS       22              0.0000000000
       774        22  MOL       H18             2.6979334647        6.0398685186       21.0893499604  SYS       22              0.0000000000
       775        22  MOL       C19             5.8197379729        7.4347308339       22.6983650588  SYS       22              0.0000000000
       776        22  MOL       C20             8.1663277760        9.8493195203       16.1742005961  SYS       22              0.0000000000
       777        22  MOL       C21             6.7496938198        9.4970354878       14.1933879704  SYS       22              0.0000000000
       778        22  MOL       H22             5.0004743476        8.5145656399       14.5498882104  SYS       22              0.0000000000
       779        22  MOL       C23             4.8849632884        6.7717786818       23.4258446063  SYS       22              0.0000000000
       780        22  MOL       H24             3.0859877955        5.7634912183       23.3397874229  SYS       22              0.0000000000
       781        22  MOL       H25             6.5994773047        7.7783269149       23.1192804623  SYS       22              0.0000000000
       782        22  MOL       H26             8.9579758951       10.1874840405       16.5769569457  SYS       22              0.0000000000
       783        22  MOL       C27             7.9557841686        9.9987902064       14.8083947061  SYS       22              0.0000000000
       784        22  MOL       C28             6.5622152114        9.6900516630       12.7813794012  SYS       22              0.0000000000
       785        22  MOL       H29             5.0077109762        6.6538369731       24.3608638087  SYS       22              0.0000000000
       786        22  MOL       C30             8.9281496870       10.6708458183       13.9819356080  SYS       22              0.0000000000
       787        22  MOL       C31             7.5033471995       10.3400998820       12.0504596684  SYS       22              0.0000000000
       788        22  MOL       H32             5.7718822688        9.3657974975       12.3649006459  SYS       22              0.0000000000
       789        22  MOL       C33             8.6943778813       10.8342001879       12.6588356728  SYS       22              0.0000000000
       790        22  MOL       H34             9.7245339626       11.0079445346       14.3740418938  SYS       22              0.0000000000
       791        22  MOL       H35             7.3724723282       10.4716518092       11.1183631057  SYS       22              0.0000000000
       792        22  MOL       H36             9.3336783414       11.2918842465       12.1257785577  SYS       22              0.0000000000
       793        23  MOL       C1              4.7942965568        7.4889703651      -10.0626035911  SYS       23              0.0000000000
       794        23  MOL       C2              3.7794555446        6.8636764525       -9.2995935554  SYS       23              0.0000000000
       795        23  MOL       C3              5.9677216142        8.0265174900       -9.3899209260  SYS       23              0.0000000000
       796        23  MOL       C4              4.6778128089        7.5907097643      -11.4567184182  SYS       23              0.0000000000
       797        23  MOL       C5              3.9086307798        6.7735357827       -7.9185489313  SYS       23              0.0000000000
       798        23  MOL       H6              3.0131885291        6.5056358066       -9.7330868379  SYS       23              0.0000000000
       799        23  MOL       C7              6.0781050990        7.9264679881       -7.9923677034  SYS       23              0.0000000000
       800        23  MOL       C8              6.9775850481        8.6458954521      -10.1382227784  SYS       23              0.0000000000
       801        23  MOL       C9              5.6821282202        8.2189524417      -12.2050970433  SYS       23              0.0000000000
       802        23  MOL       H10             3.9128282050        7.2371454425      -11.8936993053  SYS       23              0.0000000000
       803        23  MOL       C11             2.8914365783        6.1355803957       -7.1194763632  SYS       23              0.0000000000
       804        23  MOL       C12             5.0739468301        7.3112207326       -7.2570518572  SYS       23              0.0000000000
       805        23  MOL       H13             6.8417961418        8.2818573529       -7.5518767230  SYS       23              0.0000000000
       806        23  MOL       H14             7.7419010076        9.0008046761       -9.7011621216  SYS       23              0.0000000000
       807        23  MOL       C15             6.8571695921        8.7520257756      -11.5316760379  SYS       23              0.0000000000
       808        23  MOL       C16             5.5648333693        8.3425421137      -13.6002016765  SYS       23              0.0000000000
       809        23  MOL       C17             3.0371590899        6.0487596629       -5.7766604925  SYS       23              0.0000000000
       810        23  MOL       H18             2.1229557388        5.7723660151       -7.5427059722  SYS       23              0.0000000000
       811        23  MOL       C19             5.1723101747        7.1986360159       -5.8274291775  SYS       23              0.0000000000
       812        23  MOL       C20             7.8687258975        9.3892194466      -12.2891832449  SYS       23              0.0000000000
       813        23  MOL       C21             6.5547011130        8.9866614554      -14.3301499847  SYS       23              0.0000000000
       814        23  MOL       H22             4.7986658012        7.9942478077      -14.0420571467  SYS       23              0.0000000000
       815        23  MOL       C23             4.1832618918        6.5905497501       -5.1241864341  SYS       23              0.0000000000
       816        23  MOL       H24             2.3685435227        5.6179554822       -5.2573430136  SYS       23              0.0000000000
       817        23  MOL       H25             5.9332163535        7.5518034093       -5.3807569853  SYS       23              0.0000000000
       818        23  MOL       H26             8.6352181733        9.7445742222      -11.8538819289  SYS       23              0.0000000000
       819        23  MOL       C27             7.7235349941        9.5133227067      -13.6659961642  SYS       23              0.0000000000
       820        23  MOL       C28             6.4371392768        9.1522596976      -15.7531496729  SYS       23              0.0000000000
       821        23  MOL       H29             4.2535696435        6.5154213383       -4.1793845100  SYS       23              0.0000000000
       822        23  MOL       C30             8.7238588450       10.1921792360      -14.4525672653  SYS       23              0.0000000000
       823        23  MOL       C31             7.4016739420        9.8104065340      -16.4452850580  SYS       23              0.0000000000
       824        23  MOL       H32             5.6740404976        8.8084038103      -16.2033328030  SYS       23              0.0000000000
       825        23  MOL       C33             8.5495997987       10.3406421381      -15.7865537364  SYS       23              0.0000000000
       826        23  MOL       H34             9.4935322346       10.5491848860      -14.0262333251  SYS       23              0.0000000000
       827        23  MOL       H35             7.3148065148        9.9253488553      -17.3846893667  SYS       23              0.0000000000
       828        23  MOL       H36             9.2020346154       10.8114525314      -16.2915250686  SYS       23              0.0000000000
       829        24  MOL       C1             -4.4823054642       11.4454644612       -9.5725515794  SYS       24              0.0000000000
       830        24  MOL       C2             -5.5439987925       11.4080965918       -8.6349965606  SYS       24              0.0000000000
       831        24  MOL       C3             -3.2273266745       10.7644221884       -9.2652406283  SYS       24              0.0000000000
       832        24  MOL       C4             -4.6287898145       12.1320314628      -10.7851642786  SYS       24              0.0000000000
       833        24  MOL       C5             -5.3824745244       10.7412599477       -7.4336606102  SYS       24              0.0000000000
       834        24  MOL       H6             -6.3635148215       11.8461164671       -8.8332054401  SYS       24              0.0000000000
       835        24  MOL       C7             -3.0875075288       10.0945156988       -8.0332922598  SYS       24              0.0000000000
       836        24  MOL       C8             -2.1782469214       10.7895010401      -10.1916666904  SYS       24              0.0000000000
       837        24  MOL       C9             -3.5763885774       12.1624874497      -11.7076536226  SYS       24              0.0000000000
       838        24  MOL       H10            -5.4450911497       12.5765326619      -10.9811780962  SYS       24              0.0000000000
       839        24  MOL       C11            -6.4460328969       10.6950654675       -6.4787328288  SYS       24              0.0000000000
       840        24  MOL       C12            -4.1325078482       10.0857359640       -7.1201366770  SYS       24              0.0000000000
       841        24  MOL       H13            -2.2705494302        9.6552703332       -7.8276686749  SYS       24              0.0000000000
       842        24  MOL       H14            -1.3630944967       10.3423037838       -9.9970087033  SYS       24              0.0000000000
       843        24  MOL       C15            -2.3243967306       11.4735872864      -11.4057209329  SYS       24              0.0000000000
       844        24  MOL       C16            -3.7147921497       12.8483824326      -12.9309333962  SYS       24              0.0000000000
       845        24  MOL       C17            -6.2752081389       10.0534755570       -5.2987739244  SYS       24              0.0000000000
       846        24  MOL       H18            -7.2739984714       11.1175199399       -6.6740868534  SYS       24              0.0000000000
       847        24  MOL       C19            -3.9926586908        9.4436746602       -5.8531286512  SYS       24              0.0000000000
       848        24  MOL       C20            -1.2706242102       11.5010370984      -12.3525094515  SYS       24              0.0000000000
       849        24  MOL       C21            -2.6733206465       12.8534719811      -13.8481395174  SYS       24              0.0000000000
       850        24  MOL       H22            -4.5283601120       13.2970620271      -13.1295080283  SYS       24              0.0000000000
       851        24  MOL       C23            -5.0253718509        9.4378092619       -4.9747756749  SYS       24              0.0000000000
       852        24  MOL       H24            -6.9895845709       10.0140091333       -4.6742487961  SYS       24              0.0000000000
       853        24  MOL       H25            -3.1724880247        9.0194277748       -5.6282477217  SYS       24              0.0000000000
       854        24  MOL       H26            -0.4561620970       11.0498159270      -12.1632857142  SYS       24              0.0000000000
       855        24  MOL       C27            -1.4351107913       12.1675182951      -13.5536406800  SYS       24              0.0000000000
       856        24  MOL       C28            -2.8088102716       13.5229665766      -15.1013471566  SYS       24              0.0000000000
       857        24  MOL       H29            -4.9277674914        9.0220185591       -4.1260434693  SYS       24              0.0000000000
       858        24  MOL       C30            -0.3940420557       12.1777865874      -14.5340731639  SYS       24              0.0000000000
       859        24  MOL       C31            -1.7989376112       13.4919548625      -16.0053550617  SYS       24              0.0000000000
       860        24  MOL       H32            -3.6162266820       13.9822176169      -15.3023546055  SYS       24              0.0000000000
       861        24  MOL       C33            -0.5772927056       12.8047268616      -15.7200271271  SYS       24              0.0000000000
       862        24  MOL       H34             0.4247839194       11.7311089593      -14.3547380419  SYS       24              0.0000000000
       863        24  MOL       H35            -1.8986482092       13.9278246080      -16.8437047719  SYS       24              0.0000000000
       864        24  MOL       H36             0.1099657895       12.7865400711      -16.3752125301  SYS       24              0.0000000000
       865        25  MOL       C1              6.5335870842       -6.0490915390       14.6671327991  SYS       25              0.0000000000
       866        25  MOL       C2              7.5096287150       -5.4120483849       13.8642642874  SYS       25              0.0000000000
       867        25  MOL       C3              5.3221001604       -6.5667640026       14.0485053571  SYS       25              0.0000000000
       868        25  MOL       C4              6.7260416489       -6.1758787339       16.0507374231  SYS       25              0.0000000000
       869        25  MOL       C5              7.2975900614       -5.2800237110       12.4968927471  SYS       25              0.0000000000
       870        25  MOL       H6              8.3007879050       -5.0672647378       14.2623422155  SYS       25              0.0000000000
       871        25  MOL       C7              5.1322088912       -6.4284089823       12.6628110966  SYS       25              0.0000000000
       872        25  MOL       C8              4.3527545707       -7.1986215239       14.8387800398  SYS       25              0.0000000000
       873        25  MOL       C9              5.7551743566       -6.8044194983       16.8417886890  SYS       25              0.0000000000
       874        25  MOL       H10             7.5151511655       -5.8330867639       16.4519372555  SYS       25              0.0000000000
       875        25  MOL       C11             8.2674269519       -4.6134926020       11.6630217701  SYS       25              0.0000000000
       876        25  MOL       C12             6.0927472695       -5.7922306041       11.8880882362  SYS       25              0.0000000000
       877        25  MOL       H13             4.3411430394       -6.7661072167       12.2581722014  SYS       25              0.0000000000
       878        25  MOL       H14             3.5638857258       -7.5419953762       14.4376045137  SYS       25              0.0000000000
       879        25  MOL       C15             4.5464011349       -7.3270972712       16.2220625497  SYS       25              0.0000000000
       880        25  MOL       C16             5.9391976060       -6.9345567038       18.2290699035  SYS       25              0.0000000000
       881        25  MOL       C17             8.0333369943       -4.4697368811       10.3377053825  SYS       25              0.0000000000
       882        25  MOL       H18             9.0613567942       -4.2660970285       12.0510971649  SYS       25              0.0000000000
       883        25  MOL       C19             5.9056671636       -5.6208905522       10.4732330052  SYS       25              0.0000000000
       884        25  MOL       C20             3.5736396031       -7.9723657061       17.0223392168  SYS       25              0.0000000000
       885        25  MOL       C21             4.9771307021       -7.5690136376       19.0033076436  SYS       25              0.0000000000
       886        25  MOL       H22             6.7265377609       -6.5906844840       18.6357704063  SYS       25              0.0000000000
       887        25  MOL       C23             6.8457150188       -4.9781600415        9.7344886130  SYS       25              0.0000000000
       888        25  MOL       H24             8.6711640987       -4.0161021728        9.7994472730  SYS       25              0.0000000000
       889        25  MOL       H25             5.1164960610       -5.9531850223       10.0609093168  SYS       25              0.0000000000
       890        25  MOL       H26             2.7866729551       -8.3244115597       16.6223118543  SYS       25              0.0000000000
       891        25  MOL       C27             3.7816320250       -8.0985119498       18.3908866587  SYS       25              0.0000000000
       892        25  MOL       C28             5.1503088986       -7.7177125293       20.4224868520  SYS       25              0.0000000000
       893        25  MOL       H29             6.7154926284       -4.8608827709        8.8003974391  SYS       25              0.0000000000
       894        25  MOL       C30             2.8161815591       -8.7753709607       19.2215221784  SYS       25              0.0000000000
       895        25  MOL       C31             4.2099757647       -8.3613861931       21.1600460567  SYS       25              0.0000000000
       896        25  MOL       H32             5.9301552110       -7.3688162467       20.8388191485  SYS       25              0.0000000000
       897        25  MOL       C33             3.0404600881       -8.9028034366       20.5502010177  SYS       25              0.0000000000
       898        25  MOL       H34             2.0312674193       -9.1386274198       18.8296480574  SYS       25              0.0000000000
       899        25  MOL       H35             4.3286602237       -8.4592114998       22.0979065744  SYS       25              0.0000000000
       900        25  MOL       H36             2.4076025430       -9.3654727610       21.0866318954  SYS       25              0.0000000000
       901        26  MOL       C1             -4.8220013535        3.8137810508      -10.6952591378  SYS       26              0.0000000000
       902        26  MOL       C2             -5.8669477169        3.7738430443       -9.7391783084  SYS       26              0.0000000000
       903        26  MOL       C3             -3.5533296084        3.1529386820      -10.4003189240  SYS       26              0.0000000000
       904        26  MOL       C4             -4.9937751512        4.4897859882      -11.9104844582  SYS       26              0.0000000000
       905        26  MOL       C5             -5.6716357775        3.1365047699       -8.5268984576  SYS       26              0.0000000000
       906        26  MOL       H6             -6.6953080498        4.1991462742       -9.9280989673  SYS       26              0.0000000000
       907        26  MOL       C7             -3.3810648863        2.5074742246       -9.1594638234  SYS       26              0.0000000000
       908        26  MOL       C8             -2.5195676356        3.1801057728      -11.3437491969  SYS       26              0.0000000000
       909        26  MOL       C9             -3.9532370606        4.5324436692      -12.8458578216  SYS       26              0.0000000000
       910        26  MOL       H10            -5.8171793551        4.9253996493      -12.0964867436  SYS       26              0.0000000000
       911        26  MOL       C11            -6.7111745576        3.1038177474       -7.5453343542  SYS       26              0.0000000000
       912        26  MOL       C12            -4.4051214777        2.5088772214       -8.2228411689  SYS       26              0.0000000000
       913        26  MOL       H13            -2.5529588453        2.0863650030       -8.9606033306  SYS       26              0.0000000000
       914        26  MOL       H14            -1.6957039534        2.7456077401      -11.1571729944  SYS       26              0.0000000000
       915        26  MOL       C15            -2.6903939655        3.8572678958      -12.5584636868  SYS       26              0.0000000000
       916        26  MOL       C16            -4.1096155957        5.2212934604      -14.0653054718  SYS       26              0.0000000000
       917        26  MOL       C17            -6.4974890628        2.5158047992       -6.3446258091  SYS       26              0.0000000000
       918        26  MOL       H18            -7.5508181070        3.5057789207       -7.7339713142  SYS       26              0.0000000000
       919        26  MOL       C19            -4.2234357136        1.9146329259       -6.9379389010  SYS       26              0.0000000000
       920        26  MOL       C20            -1.6475505045        3.8947953897      -13.5169352262  SYS       26              0.0000000000
       921        26  MOL       C21            -3.0744107605        5.2487188072      -14.9891856933  SYS       26              0.0000000000
       922        26  MOL       H22            -4.9293780063        5.6631113651      -14.2535197670  SYS       26              0.0000000000
       923        26  MOL       C23            -5.2303146863        1.9313987130       -6.0302228283  SYS       26              0.0000000000
       924        26  MOL       H24            -7.1937441519        2.4956977651       -5.6990659955  SYS       26              0.0000000000
       925        26  MOL       H25            -3.3904133045        1.5127694695       -6.7192697178  SYS       26              0.0000000000
       926        26  MOL       H26            -0.8270917645        3.4502330473      -13.3381434983  SYS       26              0.0000000000
       927        26  MOL       C27            -1.8283087637        4.5704639531      -14.7105715580  SYS       26              0.0000000000
       928        26  MOL       C28            -3.2200847683        5.9366684716      -16.2312058957  SYS       26              0.0000000000
       929        26  MOL       H29            -5.1026511778        1.5517346082       -5.1686474752  SYS       26              0.0000000000
       930        26  MOL       C30            -0.7933196966        4.5997004518      -15.6970401410  SYS       26              0.0000000000
       931        26  MOL       C31            -2.2107431365        5.9366901503      -17.1363380925  SYS       26              0.0000000000
       932        26  MOL       H32            -4.0325130875        6.3913384033      -16.4221829948  SYS       26              0.0000000000
       933        26  MOL       C33            -0.9848038442        5.2498256395      -16.8691292106  SYS       26              0.0000000000
       934        26  MOL       H34             0.0287853225        4.1543359874      -15.5298522242  SYS       26              0.0000000000
       935        26  MOL       H35            -2.3129234598        6.3939914874      -17.9628909058  SYS       26              0.0000000000
       936        26  MOL       H36            -0.2976171826        5.2497114992      -17.5246422918  SYS       26              0.0000000000
       937        27  MOL       C1             -2.7020768486       -3.3018182433       14.8429452495  SYS       27              0.0000000000
       938        27  MOL       C2             -1.7096482029       -3.2305797910       13.8341791890  SYS       27              0.0000000000
       939        27  MOL       C3             -3.9815189419       -2.6274158363       14.6393777926  SYS       27              0.0000000000
       940        27  MOL       C4             -2.4670344047       -4.0161794374       16.0251908274  SYS       27              0.0000000000
       941        27  MOL       C5             -1.9568392486       -2.5268769931       12.6689889801  SYS       27              0.0000000000
       942        27  MOL       H6             -0.8785912602       -3.6737701034       13.9594045767  SYS       27              0.0000000000
       943        27  MOL       C7             -4.2046205814       -1.9056281463       13.4497269858  SYS       27              0.0000000000
       944        27  MOL       C8             -4.9725348847       -2.7017980177       15.6251856934  SYS       27              0.0000000000
       945        27  MOL       C9             -3.4560393945       -4.0867426882       17.0132963456  SYS       27              0.0000000000
       946        27  MOL       H10            -1.6340647225       -4.4537494907       16.1557456147  SYS       27              0.0000000000
       947        27  MOL       C11            -0.9758823723       -2.4672532414       11.6300731896  SYS       27              0.0000000000
       948        27  MOL       C12            -3.2179764541       -1.8467747889       12.4755475737  SYS       27              0.0000000000
       949        27  MOL       H13            -5.0343642251       -1.4624102414       13.3166049897  SYS       27              0.0000000000
       950        27  MOL       H14            -5.8058963518       -2.2649384158       15.4947519990  SYS       27              0.0000000000
       951        27  MOL       C15            -4.7367467628       -3.4153405229       16.8077771383  SYS       27              0.0000000000
       952        27  MOL       C16            -3.2307122173       -4.8004313882       18.2074056211  SYS       27              0.0000000000
       953        27  MOL       C17            -1.2311589036       -1.7853098987       10.4886228430  SYS       27              0.0000000000
       954        27  MOL       H18            -0.1457841302       -2.9151491332       11.7418056640  SYS       27              0.0000000000
       955        27  MOL       C19            -3.4290369814       -1.1193915185       11.2658050931  SYS       27              0.0000000000
       956        27  MOL       C20            -5.7301007967       -3.4858475947       17.8156834034  SYS       27              0.0000000000
       957        27  MOL       C21            -4.2155856480       -4.8544712866       19.1836534888  SYS       27              0.0000000000
       958        27  MOL       H22            -2.3997446263       -5.2405119621       18.3432733706  SYS       27              0.0000000000
       959        27  MOL       C23            -2.4691202119       -1.0916003081       10.3088190606  SYS       27              0.0000000000
       960        27  MOL       H24            -0.5823331272       -1.7637804974        9.7954529382  SYS       27              0.0000000000
       961        27  MOL       H25            -4.2485253916       -0.6564757966       11.1339546008  SYS       27              0.0000000000
       962        27  MOL       H26            -6.5629204996       -3.0466123329       17.6882533643  SYS       27              0.0000000000
       963        27  MOL       C27            -5.4793911388       -4.1807370303       18.9854024360  SYS       27              0.0000000000
       964        27  MOL       C28            -4.0020854803       -5.5710924870       20.3993761424  SYS       27              0.0000000000
       965        27  MOL       H29            -2.6128475931       -0.6065417464        9.5045706491  SYS       27              0.0000000000
       966        27  MOL       C30            -6.4598477694       -4.2343189178       20.0251193166  SYS       27              0.0000000000
       967        27  MOL       C31            -4.9614072353       -5.5948935915       21.3570661301  SYS       27              0.0000000000
       968        27  MOL       H32            -3.1805401546       -6.0289585098       20.5359731849  SYS       27              0.0000000000
       969        27  MOL       C33            -6.1996614680       -4.9027044934       21.1734596518  SYS       27              0.0000000000
       970        27  MOL       H34            -7.2921309826       -3.7912705207       19.9103554714  SYS       27              0.0000000000
       971        27  MOL       H35            -4.8168117831       -6.0739806806       22.1647310326  SYS       27              0.0000000000
       972        27  MOL       H36            -6.8465979554       -4.9143101768       21.8686297036  SYS       27              0.0000000000
       973        28  MOL       C1             -5.1429435713       -3.7861841277      -11.9226183179  SYS       28              0.0000000000
       974        28  MOL       C2             -6.1927176769       -3.8155713354      -10.9714562845  SYS       28              0.0000000000
       975        28  MOL       C3             -3.8812594167       -4.4569972937      -11.6203053220  SYS       28              0.0000000000
       976        28  MOL       C4             -5.3031983761       -3.1088954861      -13.1387021908  SYS       28              0.0000000000
       977        28  MOL       C5             -6.0086408208       -4.4522309986       -9.7570636585  SYS       28              0.0000000000
       978        28  MOL       H6             -7.0158471951       -3.3822034046      -11.1648592992  SYS       28              0.0000000000
       979        28  MOL       C7             -3.7228014399       -5.1077723002      -10.3803844208  SYS       28              0.0000000000
       980        28  MOL       C8             -2.8398006486       -4.4319585805      -12.5552915379  SYS       28              0.0000000000
       981        28  MOL       C9             -4.2536746983       -3.0666330464      -14.0640002322  SYS       28              0.0000000000
       982        28  MOL       H10            -6.1232222000       -2.6692260755      -13.3300195278  SYS       28              0.0000000000
       983        28  MOL       C11            -7.0511805411       -4.4684287101       -8.7782756370  SYS       28              0.0000000000
       984        28  MOL       C12            -4.7511297758       -5.0955816910       -9.4485324531  SYS       28              0.0000000000
       985        28  MOL       H13            -2.9000937058       -5.5374994813      -10.1775923580  SYS       28              0.0000000000
       986        28  MOL       H14            -2.0194821248       -4.8708810505      -12.3635229824  SYS       28              0.0000000000
       987        28  MOL       C15            -2.9954033357       -3.7462949907      -13.7672794608  SYS       28              0.0000000000
       988        28  MOL       C16            -4.3973222461       -2.3702472990      -15.2807307410  SYS       28              0.0000000000
       989        28  MOL       C17            -6.8492680665       -5.0576394999       -7.5761176970  SYS       28              0.0000000000
       990        28  MOL       H18            -7.8843407589       -4.0548452997       -8.9705014797  SYS       28              0.0000000000
       991        28  MOL       C19            -4.5829950467       -5.6941814033       -8.1638072078  SYS       28              0.0000000000
       992        28  MOL       C20            -1.9412464573       -3.7002197474      -14.7129161977  SYS       28              0.0000000000
       993        28  MOL       C21            -3.3508257676       -2.3352017109      -16.1915396075  SYS       28              0.0000000000
       994        28  MOL       H22            -5.2142490038       -1.9258235733      -15.4750405879  SYS       28              0.0000000000
       995        28  MOL       C23            -5.5922615017       -5.6622707882       -7.2591538223  SYS       28              0.0000000000
       996        28  MOL       H24            -7.5468703772       -5.0651941295       -6.9317444634  SYS       28              0.0000000000
       997        28  MOL       H25            -3.7569231960       -6.1088482379       -7.9426885078  SYS       28              0.0000000000
       998        28  MOL       H26            -1.1224184249       -4.1446192783      -14.5264104004  SYS       28              0.0000000000
       999        28  MOL       C27            -2.1073888009       -3.0140647380      -15.9026881396  SYS       28              0.0000000000
      1000        28  MOL       C28            -3.4814782790       -1.6356091111      -17.4287178304  SYS       28              0.0000000000
      1001        28  MOL       H29            -5.4734148543       -6.0441913738       -6.3973145011  SYS       28              0.0000000000
      1002        28  MOL       C30            -1.0579885294       -2.9692882844      -16.8732197187  SYS       28              0.0000000000
      1003        28  MOL       C31            -2.4604512048       -1.6253885203      -18.3205889400  SYS       28              0.0000000000
      1004        28  MOL       H32            -4.2918309732       -1.1795262946      -17.6250689147  SYS       28              0.0000000000
      1005        28  MOL       C33            -1.2348211589       -2.3080132284      -18.0413666472  SYS       28              0.0000000000
      1006        28  MOL       H34            -0.2363098949       -3.4121089194      -16.6974014188  SYS       28              0.0000000000
      1007        28  MOL       H35            -2.5543212759       -1.1627866155      -19.1451753646  SYS       28              0.0000000000
      1008        28  MOL       H36            -0.5376212713       -2.2972609636      -18.6861298795  SYS       28              0.0000000000
      1009        29  MOL       C1             -5.0205134547      -11.0344129986       15.5783941158  SYS       29              0.0000000000
      1010        29  MOL       C2             -6.0250133990      -11.1099657343       16.5748228181  SYS       29              0.0000000000
      1011        29  MOL       C3             -3.7381376669      -11.6978796315       15.7987455687  SYS       29              0.0000000000
      1012        29  MOL       C4             -5.2485074931      -10.3251718451       14.3916939955  SYS       29              0.0000000000
      1013        29  MOL       C5             -5.7851358768      -11.8056591012       17.7463341401  SYS       29              0.0000000000
      1014        29  MOL       H6             -6.8588255414      -10.6756079315       16.4375446431  SYS       29              0.0000000000
      1015        29  MOL       C7             -3.5220699146      -12.4069310822       16.9973203996  SYS       29              0.0000000000
      1016        29  MOL       C8             -2.7396663168      -11.6232332652       14.8205096978  SYS       29              0.0000000000
      1017        29  MOL       C9             -4.2502017641      -10.2527003701       13.4131256109  SYS       29              0.0000000000
      1018        29  MOL       H10            -6.0830157113       -9.8934846704       14.2517196693  SYS       29              0.0000000000
      1019        29  MOL       C11            -6.7803253917      -11.8706351110       18.7712992057  SYS       29              0.0000000000
      1020        29  MOL       C12            -4.5183206262      -12.4684604982       17.9615063416  SYS       29              0.0000000000
      1021        29  MOL       H13            -2.6895809146      -12.8407499830       17.1436122755  SYS       29              0.0000000000
      1022        29  MOL       H14            -1.9053184450      -12.0551527503       14.9607230152  SYS       29              0.0000000000
      1023        29  MOL       C15            -2.9683165437      -10.9176901252       13.6317332596  SYS       29              0.0000000000
      1024        29  MOL       C16            -4.4702921999       -9.5443900928       12.2148445105  SYS       29              0.0000000000
      1025        29  MOL       C17            -6.5309567896      -12.5377083801       19.9227983439  SYS       29              0.0000000000
      1026        29  MOL       H18            -7.6153992469      -11.4362077558       18.6444824090  SYS       29              0.0000000000
      1027        29  MOL       C19            -4.3144047712      -13.1796473906       19.1820559673  SYS       29              0.0000000000
      1028        29  MOL       C20            -1.9686638237      -10.8464643200       12.6301246421  SYS       29              0.0000000000
      1029        29  MOL       C21            -3.4795624777       -9.4926653418       11.2444141628  SYS       29              0.0000000000
      1030        29  MOL       H22            -5.3024209785       -9.1088592314       12.0716221292  SYS       29              0.0000000000
      1031        29  MOL       C23            -5.2872046925      -13.2144789743       20.1257094451  SYS       29              0.0000000000
      1032        29  MOL       H24            -7.1895671080      -12.5581787221       20.6067108560  SYS       29              0.0000000000
      1033        29  MOL       H25            -3.4896142812      -13.6275126307       19.3316358559  SYS       29              0.0000000000
      1034        29  MOL       H26            -1.1352528201      -11.2822635899       12.7652534022  SYS       29              0.0000000000
      1035        29  MOL       C27            -2.2136234979      -10.1585897242       11.4550533465  SYS       29              0.0000000000
      1036        29  MOL       C28            -3.6926251854       -8.7892551944       10.0209239427  SYS       29              0.0000000000
      1037        29  MOL       H29            -5.1489309356      -13.6908313351       20.9360943407  SYS       29              0.0000000000
      1038        29  MOL       C30            -1.2271146027      -10.1030433304       10.4211809143  SYS       29              0.0000000000
      1039        29  MOL       C31            -2.7296081296       -8.7703196829        9.0668409227  SYS       29              0.0000000000
      1040        29  MOL       H32            -4.5166891482       -8.3381704629        9.8771257279  SYS       29              0.0000000000
      1041        29  MOL       C33            -1.4841926953       -9.4451057971        9.2661264653  SYS       29              0.0000000000
      1042        29  MOL       H34            -0.3928106917      -10.5399148106       10.5446243085  SYS       29              0.0000000000
      1043        29  MOL       H35            -2.8760663199       -8.3056337620        8.2511376255  SYS       29              0.0000000000
      1044        29  MOL       H36            -0.8338519406       -9.4312998912        8.5741805053  SYS       29              0.0000000000
      1045        30  MOL       C1             -4.3171411023        9.0930693439        4.5436269494  SYS       30              0.0000000000
      1046        30  MOL       C2             -5.3547046556        9.0600142851        5.5079752897  SYS       30              0.0000000000
      1047        30  MOL       C3             -3.0590241363        8.4049545134        4.8208814162  SYS       30              0.0000000000
      1048        30  MOL       C4             -4.4863395749        9.7777124413        3.3328845388  SYS       30              0.0000000000
      1049        30  MOL       C5             -5.1747384634        8.3756859603        6.6967882267  SYS       30              0.0000000000
      1050        30  MOL       H6             -6.1715389712        9.5139322291        5.3362345327  SYS       30              0.0000000000
      1051        30  MOL       C7             -2.9040192937        7.7016681119        6.0322371025  SYS       30              0.0000000000
      1052        30  MOL       C8             -2.0200160085        8.4466699389        3.8837664442  SYS       30              0.0000000000
      1053        30  MOL       C9             -3.4559568713        9.8020738427        2.3856883852  SYS       30              0.0000000000
      1054        30  MOL       H10            -5.3070220318       10.2205502151        3.1519823662  SYS       30              0.0000000000
      1055        30  MOL       C11            -6.2014150035        8.3521575431        7.6920565895  SYS       30              0.0000000000
      1056        30  MOL       C12            -3.9359814585        7.6780404929        6.9598424651  SYS       30              0.0000000000
      1057        30  MOL       H13            -2.0887824413        7.2484179925        6.2127677242  SYS       30              0.0000000000
      1058        30  MOL       H14            -1.1986541359        8.0053257167        4.0652342216  SYS       30              0.0000000000
      1059        30  MOL       C15            -2.1909291951        9.1310031690        2.6730896983  SYS       30              0.0000000000
      1060        30  MOL       C16            -3.6250227080       10.4581009188        1.1499432393  SYS       30              0.0000000000
      1061        30  MOL       C17            -6.0079003118        7.6924926737        8.8584682027  SYS       30              0.0000000000
      1062        30  MOL       H18            -7.0187821322        8.8097882555        7.5350754267  SYS       30              0.0000000000
      1063        30  MOL       C19            -3.7913237545        6.9713966069        8.1914424071  SYS       30              0.0000000000
      1064        30  MOL       C20            -1.1468940910        9.1706941913        1.7160035900  SYS       30              0.0000000000
      1065        30  MOL       C21            -2.6007255958       10.4608434357        0.2135865785  SYS       30              0.0000000000
      1066        30  MOL       H22            -4.4497458383       10.8879866229        0.9558604608  SYS       30              0.0000000000
      1067        30  MOL       C23            -4.7894112307        6.9863024284        9.1088485447  SYS       30              0.0000000000
      1068        30  MOL       H24            -6.6866079078        7.6975980890        9.5227368576  SYS       30              0.0000000000
      1069        30  MOL       H25            -2.9869778306        6.4961125294        8.3657107339  SYS       30              0.0000000000
      1070        30  MOL       H26            -0.3202439865        8.7406192587        1.9015833826  SYS       30              0.0000000000
      1071        30  MOL       C27            -1.3383289623        9.8215057934        0.5102813181  SYS       30              0.0000000000
      1072        30  MOL       C28            -2.7747995697       11.0778285589       -1.0616143706  SYS       30              0.0000000000
      1073        30  MOL       H29            -4.6833811876        6.5242388519        9.9322620286  SYS       30              0.0000000000
      1074        30  MOL       C30            -0.2954101434        9.8635996402       -0.4673310035  SYS       30              0.0000000000
      1075        30  MOL       C31            -1.7633381101       11.0748579967       -1.9643722117  SYS       30              0.0000000000
      1076        30  MOL       H32            -3.6040634050       11.4896761939       -1.2759500891  SYS       30              0.0000000000
      1077        30  MOL       C33            -0.4998997122       10.4794542730       -1.6556191849  SYS       30              0.0000000000
      1078        30  MOL       H34             0.5412368097        9.4534896008       -0.2829683202  SYS       30              0.0000000000
      1079        30  MOL       H35            -1.8852750921       11.4717092631       -2.8190039087  SYS       30              0.0000000000
      1080        30  MOL       H36             0.2006472867       10.5132092954       -2.2959452064  SYS       30              0.0000000000
      1081        31  MOL       C1             -4.6979857435        1.4627302528        3.4391532995  SYS       31              0.0000000000
      1082        31  MOL       C2             -5.7465075631        1.4194328921        4.3911647716  SYS       31              0.0000000000
      1083        31  MOL       C3             -3.4351390022        0.7903164748        3.7329358991  SYS       31              0.0000000000
      1084        31  MOL       C4             -4.8615041373        2.1430807368        2.2252149123  SYS       31              0.0000000000
      1085        31  MOL       C5             -5.5695829209        0.7474236548        5.5874383698  SYS       31              0.0000000000
      1086        31  MOL       H6             -6.5671128904        1.8619365050        4.2079923306  SYS       31              0.0000000000
      1087        31  MOL       C7             -3.2844249964        0.0980866541        4.9511821872  SYS       31              0.0000000000
      1088        31  MOL       C8             -2.3868704138        0.8406477548        2.8066193948  SYS       31              0.0000000000
      1089        31  MOL       C9             -3.8204296077        2.1777764140        1.2901092545  SYS       31              0.0000000000
      1090        31  MOL       H10            -5.6847165217        2.5767284753        2.0338472179  SYS       31              0.0000000000
      1091        31  MOL       C11            -6.6058820505        0.7184592441        6.5725386618  SYS       31              0.0000000000
      1092        31  MOL       C12            -4.3228619651        0.0725671992        5.8714828449  SYS       31              0.0000000000
      1093        31  MOL       H13            -2.4646819226       -0.3420935468        5.1432779349  SYS       31              0.0000000000
      1094        31  MOL       H14            -1.5629409702        0.4087477431        2.9988516878  SYS       31              0.0000000000
      1095        31  MOL       C15            -2.5518281354        1.5201212608        1.5923845895  SYS       31              0.0000000000
      1096        31  MOL       C16            -3.9829370573        2.8302496507        0.0516057767  SYS       31              0.0000000000
      1097        31  MOL       C17            -6.4112965407        0.0836848989        7.7525046513  SYS       31              0.0000000000
      1098        31  MOL       H18            -7.4294971085        1.1590772827        6.4002831874  SYS       31              0.0000000000
      1099        31  MOL       C19            -4.1748451728       -0.6054850185        7.1186580774  SYS       31              0.0000000000
      1100        31  MOL       C20            -1.4984735526        1.5676446056        0.6459258526  SYS       31              0.0000000000
      1101        31  MOL       C21            -2.9486815537        2.8420415092       -0.8736684413  SYS       31              0.0000000000
      1102        31  MOL       H22            -4.8098995056        3.2514013763       -0.1518701058  SYS       31              0.0000000000
      1103        31  MOL       C23            -5.1803799761       -0.5909348501        8.0279011013  SYS       31              0.0000000000
      1104        31  MOL       H24            -7.0957183855        0.0881548127        8.4108887936  SYS       31              0.0000000000
      1105        31  MOL       H25            -3.3621394770       -1.0591109220        7.3109333109  SYS       31              0.0000000000
      1106        31  MOL       H26            -0.6701692420        1.1449615385        0.8408763495  SYS       31              0.0000000000
      1107        31  MOL       C27            -1.6842069641        2.2133202469       -0.5634439477  SYS       31              0.0000000000
      1108        31  MOL       C28            -3.1148871859        3.4567921337       -2.1509965936  SYS       31              0.0000000000
      1109        31  MOL       H29            -5.0720118738       -1.0305804905        8.8631992169  SYS       31              0.0000000000
      1110        31  MOL       C30            -0.6342153510        2.2589712868       -1.5332949680  SYS       31              0.0000000000
      1111        31  MOL       C31            -2.0957768241        3.4590934392       -3.0451126948  SYS       31              0.0000000000
      1112        31  MOL       H32            -3.9451241225        3.8627559798       -2.3726647418  SYS       31              0.0000000000
      1113        31  MOL       C33            -0.8327781311        2.8682535631       -2.7259682865  SYS       31              0.0000000000
      1114        31  MOL       H34             0.2032456101        1.8544356627       -1.3405048356  SYS       31              0.0000000000
      1115        31  MOL       H35            -2.2129149320        3.8563937459       -3.9002068549  SYS       31              0.0000000000
      1116        31  MOL       H36            -0.1285598580        2.9009289451       -3.3623108484  SYS       31              0.0000000000
      1117        32  MOL       C1              4.1180469632       -7.7220476023      -12.3152589012  SYS       32              0.0000000000
      1118        32  MOL       C2              3.0967952456       -8.3506024383      -11.5635655546  SYS       32              0.0000000000
      1119        32  MOL       C3              5.2868348217       -7.1882957768      -11.6315709325  SYS       32              0.0000000000
      1120        32  MOL       C4              4.0124711898       -7.6162881699      -13.7099431921  SYS       32              0.0000000000
      1121        32  MOL       C5              3.2178194087       -8.4515497286      -10.1825301958  SYS       32              0.0000000000
      1122        32  MOL       H6              2.3346575409       -8.7081128232      -12.0047085276  SYS       32              0.0000000000
      1123        32  MOL       C7              5.3853971587       -7.2931922614      -10.2334895212  SYS       32              0.0000000000
      1124        32  MOL       C8              6.3059223800       -6.5726634511      -12.3703985825  SYS       32              0.0000000000
      1125        32  MOL       C9              5.0270287422       -6.9932890699      -14.4488302198  SYS       32              0.0000000000
      1126        32  MOL       H10             3.2503388023       -7.9668901970      -14.1542335506  SYS       32              0.0000000000
      1127        32  MOL       C11             2.2002672518       -9.1043442127       -9.3959965851  SYS       32              0.0000000000
      1128        32  MOL       C12             4.3773577565       -7.9155833027       -9.5095845419  SYS       32              0.0000000000
      1129        32  MOL       H13             6.1458360069       -6.9399510867       -9.7857045610  SYS       32              0.0000000000
      1130        32  MOL       H14             7.0681127485       -6.2223999639      -11.9259406916  SYS       32              0.0000000000
      1131        32  MOL       C15             6.1991381238       -6.4670532812      -13.7650021748  SYS       32              0.0000000000
      1132        32  MOL       C16             4.9235920192       -6.8712030066      -15.8451630207  SYS       32              0.0000000000
      1133        32  MOL       C17             2.3427030156       -9.2099644112       -8.0541754982  SYS       32              0.0000000000
      1134        32  MOL       H18             1.4361884461       -9.4677183898       -9.8269879934  SYS       32              0.0000000000
      1135        32  MOL       C19             4.4700193828       -8.0438415238       -8.0809014462  SYS       32              0.0000000000
      1136        32  MOL       C20             7.2238570353       -5.8412732032      -14.5142882004  SYS       32              0.0000000000
      1137        32  MOL       C21             5.9293484790       -6.2434399893      -16.5676033074  SYS       32              0.0000000000
      1138        32  MOL       H22             4.1589478538       -7.2144807508      -16.2935352112  SYS       32              0.0000000000
      1139        32  MOL       C23             3.4827985343       -8.6692411895       -7.3903899931  SYS       32              0.0000000000
      1140        32  MOL       H24             1.6757543357       -9.6529034744       -7.5429865749  SYS       32              0.0000000000
      1141        32  MOL       H25             5.2271463468       -7.6924109467       -7.6265042657  SYS       32              0.0000000000
      1142        32  MOL       H26             7.9895181031       -5.4923889598      -14.0723407010  SYS       32              0.0000000000
      1143        32  MOL       C27             7.0964093206       -5.7254595282      -15.8935779113  SYS       32              0.0000000000
      1144        32  MOL       C28             5.8323285563       -6.0911427677      -17.9936342973  SYS       32              0.0000000000
      1145        32  MOL       H29             3.5509142613       -8.7581388232       -6.4466232720  SYS       32              0.0000000000
      1146        32  MOL       C30             8.1169147283       -5.0713551854      -16.6751815869  SYS       32              0.0000000000
      1147        32  MOL       C31             6.8176483518       -5.4592330280      -18.6809266453  SYS       32              0.0000000000
      1148        32  MOL       H32             5.0699502743       -6.4289883540      -18.4495522481  SYS       32              0.0000000000
      1149        32  MOL       C33             7.9665441616       -4.9414830515      -18.0140054241  SYS       32              0.0000000000
      1150        32  MOL       H34             8.8867317684       -4.7222083764      -16.2426436942  SYS       32              0.0000000000
      1151        32  MOL       H35             6.7449529726       -5.3564608418      -19.6229411903  SYS       32              0.0000000000
      1152        32  MOL       H36             8.6363563281       -4.4937261237      -18.5171903462  SYS       32              0.0000000000
      1153        33  MOL       C1             -2.2669420415        4.3209917018       15.9096471098  SYS       33              0.0000000000
      1154        33  MOL       C2             -1.2573389960        4.3770836905       14.9170979343  SYS       33              0.0000000000
      1155        33  MOL       C3             -3.5456791164        4.9859505168       15.6732330028  SYS       33              0.0000000000
      1156        33  MOL       C4             -2.0479132891        3.6271558743       17.1070942817  SYS       33              0.0000000000
      1157        33  MOL       C5             -1.4933998125        5.0448120092       13.7286605417  SYS       33              0.0000000000
      1158        33  MOL       H6             -0.4267823654        3.9395620681       15.0637445009  SYS       33              0.0000000000
      1159        33  MOL       C7             -3.7523341790        5.6817257315       14.4652547675  SYS       33              0.0000000000
      1160        33  MOL       C8             -4.5531859580        4.9218276497       16.6429137488  SYS       33              0.0000000000
      1161        33  MOL       C9             -3.0553871531        3.5641123617       18.0768800693  SYS       33              0.0000000000
      1162        33  MOL       H10            -1.2148301289        3.1968742293       17.2593465043  SYS       33              0.0000000000
      1163        33  MOL       C11            -0.5040990732        5.0677940405       12.6962200777  SYS       33              0.0000000000
      1164        33  MOL       C12            -2.7552993714        5.7125972036       13.5004105238  SYS       33              0.0000000000
      1165        33  MOL       H13            -4.5823219271        6.1169674173       14.3092961263  SYS       33              0.0000000000
      1166        33  MOL       H14            -5.3857271772        5.3534070338       16.4913718206  SYS       33              0.0000000000
      1167        33  MOL       C15            -4.3363998434        4.2239378420       17.8384115816  SYS       33              0.0000000000
      1168        33  MOL       C16            -2.8443824380        2.8740843142       19.2874002667  SYS       33              0.0000000000
      1169        33  MOL       C17            -0.7588355366        5.6908750496       11.5214855932  SYS       33              0.0000000000
      1170        33  MOL       H18             0.3268715607        4.6279979525       12.8312207305  SYS       33              0.0000000000
      1171        33  MOL       C19            -2.9620821424        6.3863921727       12.2593017204  SYS       33              0.0000000000
      1172        33  MOL       C20            -5.3476362443        4.1598638761       18.8288124949  SYS       33              0.0000000000
      1173        33  MOL       C21            -3.8443090600        2.8315859722       20.2488036851  SYS       33              0.0000000000
      1174        33  MOL       H22            -2.0113305403        2.4457230678       19.4460485049  SYS       33              0.0000000000
      1175        33  MOL       C23            -1.9997911188        6.3684023611       11.3044681233  SYS       33              0.0000000000
      1176        33  MOL       H24            -0.1105711379        5.6760750666       10.8276144535  SYS       33              0.0000000000
      1177        33  MOL       H25            -3.7837571072        6.8374052912       12.1022215262  SYS       33              0.0000000000
      1178        33  MOL       H26            -6.1806964980        4.5920525560       18.6805618820  SYS       33              0.0000000000
      1179        33  MOL       C27            -5.1113515947        3.4874513218       20.0145612754  SYS       33              0.0000000000
      1180        33  MOL       C28            -3.6388374652        2.1531303140       21.4875890641  SYS       33              0.0000000000
      1181        33  MOL       H29            -2.1435367290        6.8077013138       10.4743425265  SYS       33              0.0000000000
      1182        33  MOL       C30            -6.1073365734        3.4464653200       21.0399936113  SYS       33              0.0000000000
      1183        33  MOL       C31            -4.6107797196        2.1457235053       22.4327389035  SYS       33              0.0000000000
      1184        33  MOL       H32            -2.8129222822        1.7115793410       21.6492480098  SYS       33              0.0000000000
      1185        33  MOL       C33            -5.8557089414        2.8142031069       22.2104848560  SYS       33              0.0000000000
      1186        33  MOL       H34            -6.9429392016        3.8765443676       20.9023046933  SYS       33              0.0000000000
      1187        33  MOL       H35            -4.4705737695        1.6943093310       23.2569490875  SYS       33              0.0000000000
      1188        33  MOL       H36            -6.5124732858        2.8139075656       22.8964756877  SYS       33              0.0000000000
      1189        34  MOL       C1             -5.0182814179       -6.1334389025        2.1965731807  SYS       34              0.0000000000
      1190        34  MOL       C2             -6.0645023427       -6.1685448797        3.1514490079  SYS       34              0.0000000000
      1191        34  MOL       C3             -3.7584324216       -6.8118970032        2.4893281914  SYS       34              0.0000000000
      1192        34  MOL       C4             -5.1801235138       -5.4554481649        0.9810908994  SYS       34              0.0000000000
      1193        34  MOL       C5             -5.8878556808       -6.8358908993        4.3503712377  SYS       34              0.0000000000
      1194        34  MOL       H6             -6.8840902926       -5.7245511289        2.9673299284  SYS       34              0.0000000000
      1195        34  MOL       C7             -3.6057741556       -7.4952844871        3.7123154582  SYS       34              0.0000000000
      1196        34  MOL       C8             -2.7147671716       -6.7771790301        1.5571157527  SYS       34              0.0000000000
      1197        34  MOL       C9             -4.1400592834       -5.4272882820        0.0446423022  SYS       34              0.0000000000
      1198        34  MOL       H10            -6.0010759586       -5.0169499520        0.7910725121  SYS       34              0.0000000000
      1199        34  MOL       C11            -6.9240357960       -6.8617915404        5.3356820181  SYS       34              0.0000000000
      1200        34  MOL       C12            -4.6414594374       -7.5107057370        4.6359355389  SYS       34              0.0000000000
      1201        34  MOL       H13            -2.7874159331       -7.9379511398        3.9046020853  SYS       34              0.0000000000
      1202        34  MOL       H14            -1.8941478023       -7.2166205336        1.7463922938  SYS       34              0.0000000000
      1203        34  MOL       C15            -2.8769670165       -6.0973521513        0.3427072179  SYS       34              0.0000000000
      1204        34  MOL       C16            -4.2983151908       -4.7678506124       -1.1907191415  SYS       34              0.0000000000
      1205        34  MOL       C17            -6.7310232831       -7.4950461067        6.5167224649  SYS       34              0.0000000000
      1206        34  MOL       H18            -7.7477067609       -6.4220442194        5.1614798283  SYS       34              0.0000000000
      1207        34  MOL       C19            -4.4932839641       -8.1821596738        5.8866567318  SYS       34              0.0000000000
      1208        34  MOL       C20            -1.8265474428       -6.0593004935       -0.6074345119  SYS       34              0.0000000000
      1209        34  MOL       C21            -3.2646909079       -4.7599396508       -2.1167397273  SYS       34              0.0000000000
      1210        34  MOL       H22            -5.1212470701       -4.3374219883       -1.3910998153  SYS       34              0.0000000000
      1211        34  MOL       C23            -5.4994894207       -8.1672899329        6.7951523545  SYS       34              0.0000000000
      1212        34  MOL       H24            -7.4167662472       -7.4917827019        7.1737375701  SYS       34              0.0000000000
      1213        34  MOL       H25            -3.6801738891       -8.6345717423        6.0800788332  SYS       34              0.0000000000
      1214        34  MOL       H26            -1.0026879477       -6.4922235260       -0.4161549191  SYS       34              0.0000000000
      1215        34  MOL       C27            -2.0063912753       -5.4037263694       -1.8123610717  SYS       34              0.0000000000
      1216        34  MOL       C28            -3.4253831627       -4.1333979684       -3.3890342533  SYS       34              0.0000000000
      1217        34  MOL       H29            -5.3919399612       -8.6056275337        7.6312433418  SYS       34              0.0000000000
      1218        34  MOL       C30            -0.9572243214       -5.3619277328       -2.7832776411  SYS       34              0.0000000000
      1219        34  MOL       C31            -2.4060231978       -4.1309897893       -4.2828654873  SYS       34              0.0000000000
      1220        34  MOL       H32            -4.2521393674       -3.7186341595       -3.6073961867  SYS       34              0.0000000000
      1221        34  MOL       C33            -1.1495177600       -4.7386501275       -3.9697303261  SYS       34              0.0000000000
      1222        34  MOL       H34            -0.1241390442       -5.7773209552       -2.5946633283  SYS       34              0.0000000000
      1223        34  MOL       H35            -2.5182068700       -3.7228846661       -5.1335240019  SYS       34              0.0000000000
      1224        34  MOL       H36            -0.4455529077       -4.7072701495       -4.6064183939  SYS       34              0.0000000000
      1225        35  MOL       C1              6.8407729025        1.5317545043       15.8419064262  SYS       35              0.0000000000
      1226        35  MOL       C2              7.7999442070        2.1903513047       15.0361026406  SYS       35              0.0000000000
      1227        35  MOL       C3              5.6271541664        1.0085277855       15.2321944897  SYS       35              0.0000000000
      1228        35  MOL       C4              7.0495966029        1.3956328686       17.2222466252  SYS       35              0.0000000000
      1229        35  MOL       C5              7.5672863703        2.3424013871       13.6741749768  SYS       35              0.0000000000
      1230        35  MOL       H6              8.5914719805        2.5408646263       15.4284020892  SYS       35              0.0000000000
      1231        35  MOL       C7              5.4225814615        1.1593260996       13.8498923285  SYS       35              0.0000000000
      1232        35  MOL       C8              4.6707484340        0.3660537153       16.0296429451  SYS       35              0.0000000000
      1233        35  MOL       C9              6.0883438859        0.7620879864       18.0210100402  SYS       35              0.0000000000
      1234        35  MOL       H10             7.8400743337        1.7410803474       17.6184441132  SYS       35              0.0000000000
      1235        35  MOL       C11             8.5141898402        3.0406028625       12.8398629220  SYS       35              0.0000000000
      1236        35  MOL       C12             6.3616731438        1.8236352590       13.0724911480  SYS       35              0.0000000000
      1237        35  MOL       H13             4.6307343555        0.8163835534       13.4512364822  SYS       35              0.0000000000
      1238        35  MOL       H14             3.8799778942        0.0208706912       15.6337994313  SYS       35              0.0000000000
      1239        35  MOL       C15             4.8744446704        0.2391313210       17.4116248754  SYS       35              0.0000000000
      1240        35  MOL       C16             6.2834531140        0.6295228866       19.4065454277  SYS       35              0.0000000000
      1241        35  MOL       C17             8.2593784259        3.2070105607       11.5210350419  SYS       35              0.0000000000
      1242        35  MOL       H18             9.3068060784        3.3955722071       13.2237470994  SYS       35              0.0000000000
      1243        35  MOL       C19             6.1520685535        2.0193823504       11.6639739587  SYS       35              0.0000000000
      1244        35  MOL       C20             3.9051869439       -0.4005133363       18.2206200795  SYS       35              0.0000000000
      1245        35  MOL       C21             5.3287597151       -0.0056506621       20.1892762300  SYS       35              0.0000000000
      1246        35  MOL       H22             7.0745256305        0.9729034534       19.8063603545  SYS       35              0.0000000000
      1247        35  MOL       C23             7.0714495566        2.6909939451       10.9249122509  SYS       35              0.0000000000
      1248        35  MOL       H24             8.8806796877        3.6849565958       10.9844886784  SYS       35              0.0000000000
      1249        35  MOL       H25             5.3616372341        1.6842194819       11.2564133496  SYS       35              0.0000000000
      1250        35  MOL       H26             3.1131064981       -0.7497244790       17.8282748047  SYS       35              0.0000000000
      1251        35  MOL       C27             4.1250032393       -0.5282274870       19.5871725767  SYS       35              0.0000000000
      1252        35  MOL       C28             5.5190973304       -0.1643789793       21.6051676785  SYS       35              0.0000000000
      1253        35  MOL       H29             6.9264824384        2.8254251362        9.9953150661  SYS       35              0.0000000000
      1254        35  MOL       C30             3.1658287177       -1.2033058224       20.4264827554  SYS       35              0.0000000000
      1255        35  MOL       C31             4.5879617475       -0.8139229327       22.3492207341  SYS       35              0.0000000000
      1256        35  MOL       H32             6.3050676988        0.1793910500       22.0141838365  SYS       35              0.0000000000
      1257        35  MOL       C33             3.4091554285       -1.3471326018       21.7501267192  SYS       35              0.0000000000
      1258        35  MOL       H34             2.3734862882       -1.5594902745       20.0431592699  SYS       35              0.0000000000
      1259        35  MOL       H35             4.7190250007       -0.9219279355       23.2843118978  SYS       35              0.0000000000
      1260        35  MOL       H36             2.7852331479       -1.8171939432       22.2905829893  SYS       35              0.0000000000
      1261        36  MOL       C1              4.4667694809       -0.1164570866      -11.1632815261  SYS       36              0.0000000000
      1262        36  MOL       C2              3.4485758826       -0.7405854726      -10.4037917671  SYS       36              0.0000000000
      1263        36  MOL       C3              5.6406692705        0.4179668417      -10.4889406139  SYS       36              0.0000000000
      1264        36  MOL       C4              4.3524939396       -0.0148432126      -12.5575882621  SYS       36              0.0000000000
      1265        36  MOL       C5              3.5746692283       -0.8315074123       -9.0225135402  SYS       36              0.0000000000
      1266        36  MOL       H6              2.6826625442       -1.0973801176      -10.8389343142  SYS       36              0.0000000000
      1267        36  MOL       C7              5.7461605414        0.3170079028       -9.0910749783  SYS       36              0.0000000000
      1268        36  MOL       C8              6.6535723012        1.0335473903      -11.2362671468  SYS       36              0.0000000000
      1269        36  MOL       C9              5.3589436145        0.6117829438      -13.3044534575  SYS       36              0.0000000000
      1270        36  MOL       H10             3.5876138347       -0.3660444954      -12.9966526867  SYS       36              0.0000000000
      1271        36  MOL       C11             2.5558644941       -1.4713659761       -8.2270224646  SYS       36              0.0000000000
      1272        36  MOL       C12             4.7398773477       -0.2973815638       -8.3579500334  SYS       36              0.0000000000
      1273        36  MOL       H13             6.5098951733        0.6703655216       -8.6490277488  SYS       36              0.0000000000
      1274        36  MOL       H14             7.4180409775        1.3856697221      -10.7972238779  SYS       36              0.0000000000
      1275        36  MOL       C15             6.5353418567        1.1403567367      -12.6298556407  SYS       36              0.0000000000
      1276        36  MOL       C16             5.2427546852        0.7376225000      -14.6994495110  SYS       36              0.0000000000
      1277        36  MOL       C17             2.7007813024       -1.5636376285       -6.8844829055  SYS       36              0.0000000000
      1278        36  MOL       H18             1.7873722805       -1.8329049789       -8.6516635764  SYS       36              0.0000000000
      1279        36  MOL       C19             4.8367904646       -0.4150297985       -6.9286360481  SYS       36              0.0000000000
      1280        36  MOL       C20             7.5505125351        1.7730579570      -13.3862925500  SYS       36              0.0000000000
      1281        36  MOL       C21             6.2351954431        1.3790973153      -15.4282319677  SYS       36              0.0000000000
      1282        36  MOL       H22             4.4750861746        0.3928547858      -15.1414656000  SYS       36              0.0000000000
      1283        36  MOL       C23             3.8471430205       -1.0261723197       -6.2288942776  SYS       36              0.0000000000
      1284        36  MOL       H24             2.0318950071       -1.9963069769       -6.3670681496  SYS       36              0.0000000000
      1285        36  MOL       H25             5.5978790907       -0.0650005602       -6.4798096577  SYS       36              0.0000000000
      1286        36  MOL       H26             8.3189901115        2.1243561955      -12.9511989497  SYS       36              0.0000000000
      1287        36  MOL       C27             7.4059837316        1.8999272780      -14.7629230307  SYS       36              0.0000000000
      1288        36  MOL       C28             6.1171484378        1.5465431699      -16.8509752712  SYS       36              0.0000000000
      1289        36  MOL       H29             3.9175344421       -1.1075758972       -5.2846185384  SYS       36              0.0000000000
      1290        36  MOL       C30             8.4092691967        2.5736544772      -15.5501320744  SYS       36              0.0000000000
      1291        36  MOL       C31             7.0834130159        2.2032783263      -17.5420378675  SYS       36              0.0000000000
      1292        36  MOL       H32             5.3526971669        1.2056640966      -17.3011276875  SYS       36              0.0000000000
      1293        36  MOL       C33             8.2352860967        2.7254764830      -16.8837764668  SYS       36              0.0000000000
      1294        36  MOL       H34             9.1814528716        2.9255432814      -15.1240834297  SYS       36              0.0000000000
      1295        36  MOL       H35             6.9946736790        2.3217966432      -18.4808226616  SYS       36              0.0000000000
      1296        36  MOL       H36             8.8897281099        3.1929777582      -17.3892246719  SYS       36              0.0000000000
      1297        37  MOL       C1             -1.5025729485        7.1509284521      -10.1458303055  SYS       37              0.0000000000
      1298        37  MOL       C2             -2.5250056870        6.5298230182       -9.3895641759  SYS       37              0.0000000000
      1299        37  MOL       C3             -0.3291793796        7.6800329136       -9.4664325701  SYS       37              0.0000000000
      1300        37  MOL       C4             -1.6096178723        7.2504524353      -11.5408614653  SYS       37              0.0000000000
      1301        37  MOL       C5             -2.4018637976        6.4343742087       -8.0083250613  SYS       37              0.0000000000
      1302        37  MOL       H6             -3.2907995468        6.1767682576       -9.8279553017  SYS       37              0.0000000000
      1303        37  MOL       C7             -0.2269969113        7.5780004309       -8.0683991105  SYS       37              0.0000000000
      1304        37  MOL       C8              0.6884768754        8.2939560524      -10.2086475404  SYS       37              0.0000000000
      1305        37  MOL       C9             -0.5954695076        7.8697996546      -12.2833714143  SYS       37              0.0000000000
      1306        37  MOL       H10            -2.3741215962        6.9014840884      -11.9823551068  SYS       37              0.0000000000
      1307        37  MOL       C11            -3.4231640093        5.7932869926       -7.2170342307  SYS       37              0.0000000000
      1308        37  MOL       C12            -1.2366042797        6.9635545111       -7.3399063937  SYS       37              0.0000000000
      1309        37  MOL       H13             0.5368634259        7.9273194481       -7.6233692790  SYS       37              0.0000000000
      1310        37  MOL       H14             1.4528227401        8.6433893776       -9.7672483596  SYS       37              0.0000000000
      1311        37  MOL       C15             0.5783620976        8.3969218004      -11.6031898870  SYS       37              0.0000000000
      1312        37  MOL       C16            -0.7001307191        7.9836728806      -13.6803067625  SYS       37              0.0000000000
      1313        37  MOL       C17            -3.2801347506        5.6931225924       -5.8748579713  SYS       37              0.0000000000
      1314        37  MOL       H18            -4.1914594597        5.4356003194       -7.6452785054  SYS       37              0.0000000000
      1315        37  MOL       C19            -1.1431794695        6.8408713614       -5.9107834534  SYS       37              0.0000000000
      1316        37  MOL       C20             1.5982958887        9.0269562162      -12.3554337496  SYS       37              0.0000000000
      1317        37  MOL       C21             0.3020425607        8.6140249513      -14.4054670601  SYS       37              0.0000000000
      1318        37  MOL       H22            -1.4645251354        7.6371936097      -14.1266376065  SYS       37              0.0000000000
      1319        37  MOL       C23            -2.1344808294        6.2273981436       -5.2154360210  SYS       37              0.0000000000
      1320        37  MOL       H24            -3.9506411549        5.2586838159       -5.3610352507  SYS       37              0.0000000000
      1321        37  MOL       H25            -0.3825225292        7.1882060581       -5.4591407623  SYS       37              0.0000000000
      1322        37  MOL       H26             2.3635559073        9.3797434725      -11.9158965470  SYS       37              0.0000000000
      1323        37  MOL       C27             1.4673274043        9.1400648697      -13.7346181409  SYS       37              0.0000000000
      1324        37  MOL       C28             0.2023970057        8.7595271609      -15.8320264084  SYS       37              0.0000000000
      1325        37  MOL       H29            -2.0662456179        6.1438171510       -4.2711922309  SYS       37              0.0000000000
      1326        37  MOL       C30             2.4793816889        9.8049341354      -14.5181250863  SYS       37              0.0000000000
      1327        37  MOL       C31             1.1814462818        9.3982381105      -16.5219877573  SYS       37              0.0000000000
      1328        37  MOL       H32            -0.5574524693        8.4141900059      -16.2865509038  SYS       37              0.0000000000
      1329        37  MOL       C33             2.3252176491        9.9296505385      -15.8570077047  SYS       37              0.0000000000
      1330        37  MOL       H34             3.2454504807       10.1644765696      -14.0874527632  SYS       37              0.0000000000
      1331        37  MOL       H35             1.1066928281        9.4962799380      -17.4643453707  SYS       37              0.0000000000
      1332        37  MOL       H36             2.9899821354       10.3837494635      -16.3612021261  SYS       37              0.0000000000
      1333        38  MOL       C1             -1.1005043784        7.5403421351       18.4868204882  SYS       38              0.0000000000
      1334        38  MOL       C2             -2.0784589962        6.8978577040       19.2829973589  SYS       38              0.0000000000
      1335        38  MOL       C3              0.1080939496        8.0571810266       19.1117628239  SYS       38              0.0000000000
      1336        38  MOL       C4             -1.2892311691        7.6740452276       17.1033533963  SYS       38              0.0000000000
      1337        38  MOL       C5             -1.8742418829        6.7655475331       20.6515313283  SYS       38              0.0000000000
      1338        38  MOL       H6             -2.8672772640        6.5526357311       18.8806763438  SYS       38              0.0000000000
      1339        38  MOL       C7              0.2893556226        7.9192655071       20.4986560837  SYS       38              0.0000000000
      1340        38  MOL       C8              1.0808241141        8.6897382775       18.3262208164  SYS       38              0.0000000000
      1341        38  MOL       C9             -0.3186609290        8.3111277418       16.3187973740  SYS       38              0.0000000000
      1342        38  MOL       H10            -2.0777918871        7.3336791053       16.6990214080  SYS       38              0.0000000000
      1343        38  MOL       C11            -2.8466795264        6.0938437862       21.4781915918  SYS       38              0.0000000000
      1344        38  MOL       C12            -0.6765886613        7.2850728867       21.2682688305  SYS       38              0.0000000000
      1345        38  MOL       H13             1.0766322095        8.2592272339       20.9087530490  SYS       38              0.0000000000
      1346        38  MOL       H14             1.8686100748        9.0310031093       18.7313048153  SYS       38              0.0000000000
      1347        38  MOL       C15             0.8911101127        8.8259515024       16.9431336645  SYS       38              0.0000000000
      1348        38  MOL       C16            -0.5063413589        8.4600074880       14.9338929453  SYS       38              0.0000000000
      1349        38  MOL       C17            -2.6253085789        5.9585590610       22.8065817065  SYS       38              0.0000000000
      1350        38  MOL       H18            -3.6347081801        5.7397356047       21.0842004444  SYS       38              0.0000000000
      1351        38  MOL       C19            -0.5065148435        7.1283605877       22.6869611231  SYS       38              0.0000000000
      1352        38  MOL       C20             1.8665541763        9.4715264185       16.1463771327  SYS       38              0.0000000000
      1353        38  MOL       C21             0.4499787038        9.1113435076       14.1665822276  SYS       38              0.0000000000
      1354        38  MOL       H22            -1.2958266541        8.1234672721       14.5252224499  SYS       38              0.0000000000
      1355        38  MOL       C23            -1.4523297430        6.4879394233       23.4203305212  SYS       38              0.0000000000
      1356        38  MOL       H24            -3.2634394332        5.4993700325       23.3397459501  SYS       38              0.0000000000
      1357        38  MOL       H25             0.2741059909        7.4712963625       23.1067796958  SYS       38              0.0000000000
      1358        38  MOL       H26             2.6568066554        9.8136330731       16.5485446787  SYS       38              0.0000000000
      1359        38  MOL       C27             1.6541386955        9.6188752071       14.7806305159  SYS       38              0.0000000000
      1360        38  MOL       C28             0.2594788797        9.3038651968       12.7549105650  SYS       38              0.0000000000
      1361        38  MOL       H29            -1.3359134045        6.3858572550       24.3580216214  SYS       38              0.0000000000
      1362        38  MOL       C30             2.6218957090       10.2971553002       13.9538472536  SYS       38              0.0000000000
      1363        38  MOL       C31             1.1952893832        9.9617757975       12.0241930183  SYS       38              0.0000000000
      1364        38  MOL       H32            -0.5299652349        8.9761034213       12.3394930998  SYS       38              0.0000000000
      1365        38  MOL       C33             2.3852069996       10.4601901513       12.6312265726  SYS       38              0.0000000000
      1366        38  MOL       H34             3.4161249957       10.6398934765       14.3454352585  SYS       38              0.0000000000
      1367        38  MOL       H35             1.0609076559       10.0965116944       11.0930507490  SYS       38              0.0000000000
      1368        38  MOL       H36             3.0208879747       10.9230078220       12.0982733306  SYS       38              0.0000000000
      1369        39  MOL       C1              0.2028825911       -6.4078193629       14.6724523409  SYS       39              0.0000000000
      1370        39  MOL       C2              1.1720643053       -5.7639239576       13.8667447934  SYS       39              0.0000000000
      1371        39  MOL       C3             -1.0107529387       -6.9256118242       14.0581518562  SYS       39              0.0000000000
      1372        39  MOL       C4              0.4043693331       -6.5435011091       16.0539258649  SYS       39              0.0000000000
      1373        39  MOL       C5              0.9490371558       -5.6201746759       12.5023068487  SYS       39              0.0000000000
      1374        39  MOL       H6              1.9651058545       -5.4201412740       14.2619324248  SYS       39              0.0000000000
      1375        39  MOL       C7             -1.2117371449       -6.7751201574       12.6752899520  SYS       39              0.0000000000
      1376        39  MOL       C8             -1.9721493452       -7.5669135055       14.8505267819  SYS       39              0.0000000000
      1377        39  MOL       C9             -0.5587090880       -7.1812265706       16.8471440768  SYS       39              0.0000000000
      1378        39  MOL       H10             1.1943356042       -6.1993793771       16.4522912774  SYS       39              0.0000000000
      1379        39  MOL       C11             1.9119601241       -4.9464243840       11.6662278927  SYS       39              0.0000000000
      1380        39  MOL       C12            -0.2593030534       -6.1297043896       11.8982054939  SYS       39              0.0000000000
      1381        39  MOL       H13            -2.0047118766       -7.1117948215       12.2735447683  SYS       39              0.0000000000
      1382        39  MOL       H14            -2.7623903139       -7.9106683089       14.4523894533  SYS       39              0.0000000000
      1383        39  MOL       C15            -1.7688974124       -7.7054076087       16.2314625520  SYS       39              0.0000000000
      1384        39  MOL       C16            -0.3655192041       -7.3200688193       18.2323335815  SYS       39              0.0000000000
      1385        39  MOL       C17             1.6653209942       -4.7875105281       10.3449243955  SYS       39              0.0000000000
      1386        39  MOL       H18             2.7090103322       -4.6025325346       12.0510137659  SYS       39              0.0000000000
      1387        39  MOL       C19            -0.4582279133       -5.9445215047       10.4867141101  SYS       39              0.0000000000
      1388        39  MOL       C20            -2.7330210988       -8.3609970806       17.0338010653  SYS       39              0.0000000000
      1389        39  MOL       C21            -1.3170561231       -7.9690378269       19.0075555962  SYS       39              0.0000000000
      1390        39  MOL       H22             0.4219893213       -6.9735819668       18.6364809938  SYS       39              0.0000000000
      1391        39  MOL       C23             0.4737526376       -5.2920748660        9.7462673352  SYS       39              0.0000000000
      1392        39  MOL       H24             2.2963347641       -4.3234845211        9.8074942535  SYS       39              0.0000000000
      1393        39  MOL       H25            -1.2500267661       -6.2747736050       10.0778013812  SYS       39              0.0000000000
      1394        39  MOL       H26            -3.5214380485       -8.7129374142       16.6365462224  SYS       39              0.0000000000
      1395        39  MOL       C27            -2.5144260815       -8.4993534474       18.3995131972  SYS       39              0.0000000000
      1396        39  MOL       C28            -1.1318342066       -8.1322996582       20.4236100160  SYS       39              0.0000000000
      1397        39  MOL       H29             0.3346635126       -5.1637504078        8.8149106821  SYS       39              0.0000000000
      1398        39  MOL       C30            -3.4690477781       -9.1905342590       19.2308703112  SYS       39              0.0000000000
      1399        39  MOL       C31            -2.0617443490       -8.7907428772       21.1613467427  SYS       39              0.0000000000
      1400        39  MOL       H32            -0.3512737831       -7.7824349477       20.8377858172  SYS       39              0.0000000000
      1401        39  MOL       C33            -3.2331947894       -9.3330355766       20.5560096017  SYS       39              0.0000000000
      1402        39  MOL       H34            -4.2553407573       -9.5532469865       18.8412632958  SYS       39              0.0000000000
      1403        39  MOL       H35            -1.9357668939       -8.8981598171       22.0972043434  SYS       39              0.0000000000
      1404        39  MOL       H36            -3.8577345427       -9.8057031619       21.0934713561  SYS       39              0.0000000000
      1405        40  MOL       C1             -2.1415815851       -8.0773762779      -12.4920437533  SYS       40              0.0000000000
      1406        40  MOL       C2             -3.1631621100       -8.7065050909      -11.7412779395  SYS       40              0.0000000000
      1407        40  MOL       C3             -0.9786952640       -7.5331979563      -11.8065142676  SYS       40              0.0000000000
      1408        40  MOL       C4             -2.2447637736       -7.9754772789      -13.8871944875  SYS       40              0.0000000000
      1409        40  MOL       C5             -3.0458725687       -8.8020354152      -10.3595352030  SYS       40              0.0000000000
      1410        40  MOL       H6             -3.9222090695       -9.0686668362      -12.1839530795  SYS       40              0.0000000000
      1411        40  MOL       C7             -0.8824591487       -7.6357797434      -10.4080990839  SYS       40              0.0000000000
      1412        40  MOL       C8              0.0376098892       -6.9116469513      -12.5442182076  SYS       40              0.0000000000
      1413        40  MOL       C9             -1.2340778540       -7.3445756192      -14.6246807641  SYS       40              0.0000000000
      1414        40  MOL       H10            -3.0029132102       -8.3330851478      -14.3327138715  SYS       40              0.0000000000
      1415        40  MOL       C11            -4.0651268058       -9.4535028445       -9.5741059445  SYS       40              0.0000000000
      1416        40  MOL       C12            -1.8907337881       -8.2586743267       -9.6849552147  SYS       40              0.0000000000
      1417        40  MOL       H13            -0.1254639146       -7.2771248567       -9.9587853462  SYS       40              0.0000000000
      1418        40  MOL       H14             0.7949471950       -6.5524579916      -12.0985894584  SYS       40              0.0000000000
      1419        40  MOL       C15            -0.0697664788       -6.8041147977      -13.9386294516  SYS       40              0.0000000000
      1420        40  MOL       C16            -1.3401641817       -7.2191826305      -16.0205216412  SYS       40              0.0000000000
      1421        40  MOL       C17            -3.9269128509       -9.5541275702       -8.2314596989  SYS       40              0.0000000000
      1422        40  MOL       H18            -4.8270866192       -9.8197633994      -10.0064035993  SYS       40              0.0000000000
      1423        40  MOL       C19            -1.8027552737       -8.3817769528       -8.2555227258  SYS       40              0.0000000000
      1424        40  MOL       C20             0.9466431672       -6.1628431835      -14.6861328135  SYS       40              0.0000000000
      1425        40  MOL       C21            -0.3477523560       -6.5667854165      -16.7395829016  SYS       40              0.0000000000
      1426        40  MOL       H22            -2.0996883111       -7.5723035619      -16.4699508925  SYS       40              0.0000000000
      1427        40  MOL       C23            -2.7906245353       -9.0073562759       -7.5661022028  SYS       40              0.0000000000
      1428        40  MOL       H24            -4.5943487492       -9.9968800965       -7.7207452967  SYS       40              0.0000000000
      1429        40  MOL       H25            -1.0485687786       -8.0260398482       -7.7995892484  SYS       40              0.0000000000
      1430        40  MOL       H26             1.7065456147       -5.8029717838      -14.2430577170  SYS       40              0.0000000000
      1431        40  MOL       C27             0.8116327461       -6.0343480969      -16.0635786715  SYS       40              0.0000000000
      1432        40  MOL       C28            -0.4581831379       -6.3935647159      -18.1622463668  SYS       40              0.0000000000
      1433        40  MOL       H29            -2.7251908102       -9.0929201266       -6.6218377187  SYS       40              0.0000000000
      1434        40  MOL       C30             1.8145524493       -5.3484129021      -16.8406456741  SYS       40              0.0000000000
      1435        40  MOL       C31             0.5065082821       -5.7246464176      -18.8437554260  SYS       40              0.0000000000
      1436        40  MOL       H32            -1.2159845750       -6.7399956168      -18.6193504001  SYS       40              0.0000000000
      1437        40  MOL       C33             1.6479831875       -5.1932240065      -18.1748489886  SYS       40              0.0000000000
      1438        40  MOL       H34             2.5790891635       -4.9890847588      -16.4070817270  SYS       40              0.0000000000
      1439        40  MOL       H35             0.4227070402       -5.6032931661      -19.7826318328  SYS       40              0.0000000000
      1440        40  MOL       H36             2.3013979424       -4.7162982203      -18.6727652862  SYS       40              0.0000000000
      1441        41  MOL       C1             -1.7772532757       -0.4370308151      -11.3637360280  SYS       41              0.0000000000
      1442        41  MOL       C2             -2.7993820644       -1.0608505204      -10.6092952754  SYS       41              0.0000000000
      1443        41  MOL       C3             -0.6088758182        0.1006699085      -10.6824450831  SYS       41              0.0000000000
      1444        41  MOL       C4             -1.8840668864       -0.3380885163      -12.7588262954  SYS       41              0.0000000000
      1445        41  MOL       C5             -2.6817281727       -1.1472206394       -9.2269806833  SYS       41              0.0000000000
      1446        41  MOL       H6             -3.5614254675       -1.4206518489      -11.0487352995  SYS       41              0.0000000000
      1447        41  MOL       C7             -0.5123528791        0.0064527185       -9.2834612055  SYS       41              0.0000000000
      1448        41  MOL       C8              0.4087664666        0.7150203968      -11.4243255087  SYS       41              0.0000000000
      1449        41  MOL       C9             -0.8739521040        0.2900883083      -13.4994145242  SYS       41              0.0000000000
      1450        41  MOL       H10            -2.6456910839       -0.6914188673      -13.2018248646  SYS       41              0.0000000000
      1451        41  MOL       C11            -3.7039623877       -1.7882521053       -8.4368515731  SYS       41              0.0000000000
      1452        41  MOL       C12            -1.5234320349       -0.6064689854       -8.5557260903  SYS       41              0.0000000000
      1453        41  MOL       H13             0.2475450070        0.3632874966       -8.8376113711  SYS       41              0.0000000000
      1454        41  MOL       H14             1.1705763718        1.0682247960      -10.9815458721  SYS       41              0.0000000000
      1455        41  MOL       C15             0.2978298844        0.8209186139      -12.8185830918  SYS       41              0.0000000000
      1456        41  MOL       C16            -0.9835702947        0.4150472908      -14.8950214063  SYS       41              0.0000000000
      1457        41  MOL       C17            -3.5681825783       -1.8768039302       -7.0931068747  SYS       41              0.0000000000
      1458        41  MOL       H18            -4.4673488677       -2.1538240192       -8.8672108035  SYS       41              0.0000000000
      1459        41  MOL       C19            -1.4382201395       -0.7159485627       -7.1250182595  SYS       41              0.0000000000
      1460        41  MOL       C20             1.3155066818        1.4563599044      -13.5693343364  SYS       41              0.0000000000
      1461        41  MOL       C21             0.0121312201        1.0582033758      -15.6178500148  SYS       41              0.0000000000
      1462        41  MOL       H22            -1.7473636441        0.0678909762      -15.3418548880  SYS       41              0.0000000000
      1463        41  MOL       C23            -2.4298176990       -1.3304275106       -6.4309824438  SYS       41              0.0000000000
      1464        41  MOL       H24            -4.2391945402       -2.3114081321       -6.5800846477  SYS       41              0.0000000000
      1465        41  MOL       H25            -0.6832361942       -0.3588580876       -6.6714687904  SYS       41              0.0000000000
      1466        41  MOL       H26             2.0808169821        1.8082543062      -13.1291694021  SYS       41              0.0000000000
      1467        41  MOL       C27             1.1777536999        1.5830760165      -14.9466734509  SYS       41              0.0000000000
      1468        41  MOL       C28            -0.0974334682        1.2219383941      -17.0417032821  SYS       41              0.0000000000
      1469        41  MOL       H29            -2.3666592957       -1.4070114304       -5.4857924839  SYS       41              0.0000000000
      1470        41  MOL       C30             2.1835419443        2.2590393054      -15.7287551543  SYS       41              0.0000000000
      1471        41  MOL       C31             0.8726046102        1.8774703127      -17.7286092786  SYS       41              0.0000000000
      1472        41  MOL       H32            -0.8582176531        0.8777639150      -17.4955455859  SYS       41              0.0000000000
      1473        41  MOL       C33             2.0186493439        2.4047290800      -17.0642372030  SYS       41              0.0000000000
      1474        41  MOL       H34             2.9521549371        2.6136891963      -15.2985594774  SYS       41              0.0000000000
      1475        41  MOL       H35             0.7894580149        1.9905610089      -18.6685748569  SYS       41              0.0000000000
      1476        41  MOL       H36             2.6765665664        2.8700529044      -17.5671769115  SYS       41              0.0000000000
      1477        42  MOL       C1             -1.2823535399        4.8754162155        3.6870728955  SYS       42              0.0000000000
      1478        42  MOL       C2             -2.2886064433        4.2356685354        4.4494750720  SYS       42              0.0000000000
      1479        42  MOL       C3             -0.1018475435        5.4035667942        4.3547912733  SYS       42              0.0000000000
      1480        42  MOL       C4             -1.4105509696        4.9853844257        2.2946117788  SYS       42              0.0000000000
      1481        42  MOL       C5             -2.1296059463        4.0967222613        5.8233413802  SYS       42              0.0000000000
      1482        42  MOL       H6             -3.0594941947        3.8849440933        4.0181989275  SYS       42              0.0000000000
      1483        42  MOL       C7              0.0276674466        5.2681301331        5.7477134474  SYS       42              0.0000000000
      1484        42  MOL       C8              0.8977111583        6.0338823207        3.6018014680  SYS       42              0.0000000000
      1485        42  MOL       C9             -0.4010787484        5.5985939034        1.5407225876  SYS       42              0.0000000000
      1486        42  MOL       H10            -2.1773839132        4.6316286359        1.8610387777  SYS       42              0.0000000000
      1487        42  MOL       C11            -3.1229479477        3.4112968351        6.6130576189  SYS       42              0.0000000000
      1488        42  MOL       C12            -0.9523019036        4.6126677519        6.4809129987  SYS       42              0.0000000000
      1489        42  MOL       H13             0.7987775307        5.6111819594        6.1850492531  SYS       42              0.0000000000
      1490        42  MOL       H14             1.6661153435        6.3851213535        4.0346381973  SYS       42              0.0000000000
      1491        42  MOL       C15             0.7758539206        6.1350766458        2.2081063444  SYS       42              0.0000000000
      1492        42  MOL       C16            -0.5138122865        5.6920221087        0.1428986550  SYS       42              0.0000000000
      1493        42  MOL       C17            -2.9340891183        3.2446735384        7.9429058783  SYS       42              0.0000000000
      1494        42  MOL       H18            -3.8982826364        3.0615303370        6.1910027666  SYS       42              0.0000000000
      1495        42  MOL       C19            -0.8152782182        4.4205641862        7.8988313312  SYS       42              0.0000000000
      1496        42  MOL       C20             1.7905391446        6.7536896011        1.4394640160  SYS       42              0.0000000000
      1497        42  MOL       C21             0.4920258308        6.2975756725       -0.5981458994  SYS       42              0.0000000000
      1498        42  MOL       H22            -1.2784838776        5.3350747589       -0.2946215094  SYS       42              0.0000000000
      1499        42  MOL       C23            -1.7720019538        3.7537161474        8.5934745324  SYS       42              0.0000000000
      1500        42  MOL       H24            -3.5843667708        2.7722537486        8.4491550067  SYS       42              0.0000000000
      1501        42  MOL       H25            -0.0439422977        4.7525401468        8.3438642727  SYS       42              0.0000000000
      1502        42  MOL       H26             2.5590192486        7.1113990705        1.8692976496  SYS       42              0.0000000000
      1503        42  MOL       C27             1.6597542322        6.8364495332        0.0581088949  SYS       42              0.0000000000
      1504        42  MOL       C28             0.3927408351        6.3998877331       -2.0284767905  SYS       42              0.0000000000
      1505        42  MOL       H29            -1.6712808163        3.6184778249        9.5287840973  SYS       42              0.0000000000
      1506        42  MOL       C30             2.6779178412        7.4659119763       -0.7464456666  SYS       42              0.0000000000
      1507        42  MOL       C31             1.3842814553        6.9973271113       -2.7373133007  SYS       42              0.0000000000
      1508        42  MOL       H32            -0.3694660755        6.0461229712       -2.4724504442  SYS       42              0.0000000000
      1509        42  MOL       C33             2.5318000392        7.5421373027       -2.0898617157  SYS       42              0.0000000000
      1510        42  MOL       H34             3.4476854601        7.8308620983       -0.3270651374  SYS       42              0.0000000000
      1511        42  MOL       H35             1.3140495333        7.0653543325       -3.6826587046  SYS       42              0.0000000000
      1512        42  MOL       H36             3.2008669478        7.9672893993       -2.6132400159  SYS       42              0.0000000000
      1513        43  MOL       C1             -1.9510594790      -10.3507130245        1.3377282264  SYS       43              0.0000000000
      1514        43  MOL       C2             -2.9679953704      -10.9692069466        2.1034865191  SYS       43              0.0000000000
      1515        43  MOL       C3             -0.7714303476       -9.8208152064        2.0056119931  SYS       43              0.0000000000
      1516        43  MOL       C4             -2.0715288783      -10.2543644876       -0.0564308896  SYS       43              0.0000000000
      1517        43  MOL       C5             -2.8270378171      -11.0735342304        3.4823783337  SYS       43              0.0000000000
      1518        43  MOL       H6             -3.7393316983      -11.3194172064        1.6725947309  SYS       43              0.0000000000
      1519        43  MOL       C7             -0.6532845274       -9.9322576691        3.4016677206  SYS       43              0.0000000000
      1520        43  MOL       C8              0.2356895355       -9.2035804235        1.2518615736  SYS       43              0.0000000000
      1521        43  MOL       C9             -1.0600659475       -9.6445801648       -0.8104300692  SYS       43              0.0000000000
      1522        43  MOL       H10            -2.8389173576      -10.6065497447       -0.4902994781  SYS       43              0.0000000000
      1523        43  MOL       C11            -3.8428635130      -11.7140152668        4.2811713635  SYS       43              0.0000000000
      1524        43  MOL       C12            -1.6513243403      -10.5539232400        4.1399094846  SYS       43              0.0000000000
      1525        43  MOL       H13             0.1164879989       -9.5864225860        3.8391677692  SYS       43              0.0000000000
      1526        43  MOL       H14             1.0030854952       -8.8509841668        1.6853829576  SYS       43              0.0000000000
      1527        43  MOL       C15             0.1164571575       -9.1079381219       -0.1424525107  SYS       43              0.0000000000
      1528        43  MOL       C16            -1.1720984449       -9.5492163696       -2.2081796507  SYS       43              0.0000000000
      1529        43  MOL       C17            -3.6818110741      -11.8252982700        5.6204269656  SYS       43              0.0000000000
      1530        43  MOL       H18            -4.6185171143      -12.0644491432        3.8602576296  SYS       43              0.0000000000
      1531        43  MOL       C19            -1.5371945949      -10.6977727666        5.5655508828  SYS       43              0.0000000000
      1532        43  MOL       C20             1.1305261675       -8.4854078059       -0.9087417187  SYS       43              0.0000000000
      1533        43  MOL       C21            -0.1699599147       -8.9348978745       -2.9470190306  SYS       43              0.0000000000
      1534        43  MOL       H22            -1.9373922166       -9.9039884479       -2.6463806937  SYS       43              0.0000000000
      1535        43  MOL       C23            -2.5195639845      -11.3152799762        6.2699449430  SYS       43              0.0000000000
      1536        43  MOL       H24            -4.3535653357      -12.2555973675        6.1360998790  SYS       43              0.0000000000
      1537        43  MOL       H25            -0.7672349170      -10.3618271604        6.0099877416  SYS       43              0.0000000000
      1538        43  MOL       H26             1.8976057554       -8.1261497283       -0.4776996834  SYS       43              0.0000000000
      1539        43  MOL       C27             0.9968962754       -8.3958012314       -2.2893972144  SYS       43              0.0000000000
      1540        43  MOL       C28            -0.2735519683       -8.8198392800       -4.3760753417  SYS       43              0.0000000000
      1541        43  MOL       H29            -2.4370424733      -11.4108052487        7.2119127055  SYS       43              0.0000000000
      1542        43  MOL       C30             2.0087080287       -7.7512851607       -3.0900370582  SYS       43              0.0000000000
      1543        43  MOL       C31             0.7098714884       -8.2046864258       -5.0810583789  SYS       43              0.0000000000
      1544        43  MOL       H32            -1.0349147678       -9.1738556283       -4.8212950628  SYS       43              0.0000000000
      1545        43  MOL       C33             1.8558165414       -7.6588571089       -4.4316810684  SYS       43              0.0000000000
      1546        43  MOL       H34             2.7772596360       -7.3856930123       -2.6689888243  SYS       43              0.0000000000
      1547        43  MOL       H35             0.6353788644       -8.1255324136       -6.0252107235  SYS       43              0.0000000000
      1548        43  MOL       H36             2.5192951541       -7.2216546619       -4.9522382904  SYS       43              0.0000000000
      1549        44  MOL       C1              0.5583290166        1.1909454414       15.7188944562  SYS       44              0.0000000000
      1550        44  MOL       C2              1.5426903208        1.8078257342       14.9104573118  SYS       44              0.0000000000
      1551        44  MOL       C3             -0.6723040062        0.7057061973       15.1118767293  SYS       44              0.0000000000
      1552        44  MOL       C4              0.7635316371        1.0549515678       17.0997902000  SYS       44              0.0000000000
      1553        44  MOL       C5              1.3232548561        1.9415635735       13.5444199386  SYS       44              0.0000000000
      1554        44  MOL       H6              2.3465059894        2.1306199378       15.3015569710  SYS       44              0.0000000000
      1555        44  MOL       C7             -0.8725432378        0.8585722174       13.7291672040  SYS       44              0.0000000000
      1556        44  MOL       C8             -1.6456486245        0.0911277097       15.9108150449  SYS       44              0.0000000000
      1557        44  MOL       C9             -0.2142065733        0.4494041712       17.9002583446  SYS       44              0.0000000000
      1558        44  MOL       H10             1.5640511567        1.3786526310       17.4941854002  SYS       44              0.0000000000
      1559        44  MOL       C11             2.3130268188        2.5678621319       12.7028204699  SYS       44              0.0000000000
      1560        44  MOL       C12             0.0997161080        1.4642059384       12.9446469804  SYS       44              0.0000000000
      1561        44  MOL       H13            -1.6765860108        0.5447553109       13.3309309802  SYS       44              0.0000000000
      1562        44  MOL       H14            -2.4464496047       -0.2318211881       15.5163746133  SYS       44              0.0000000000
      1563        44  MOL       C15            -1.4402710254       -0.0453046273       17.2916415244  SYS       44              0.0000000000
      1564        44  MOL       C16            -0.0223712693        0.3204047582       19.2865872240  SYS       44              0.0000000000
      1565        44  MOL       C17             2.0866296574        2.6900678404       11.3740099333  SYS       44              0.0000000000
      1566        44  MOL       H18             3.1185710818        2.8952562052       13.0842943872  SYS       44              0.0000000000
      1567        44  MOL       C19            -0.0860022080        1.6301890985       11.5289740063  SYS       44              0.0000000000
      1568        44  MOL       C20            -2.4203780308       -0.6663987604       18.1020188457  SYS       44              0.0000000000
      1569        44  MOL       C21            -0.9943003127       -0.2853839921       20.0713969739  SYS       44              0.0000000000
      1570        44  MOL       H22             0.7757020434        0.6493906436       19.6845887390  SYS       44              0.0000000000
      1571        44  MOL       C23             0.8792733540        2.2201328127       10.7788105101  SYS       44              0.0000000000
      1572        44  MOL       H24             2.7481004375        3.1017427984       10.8305857908  SYS       44              0.0000000000
      1573        44  MOL       H25            -0.8884928638        1.3232528820       11.1227470084  SYS       44              0.0000000000
      1574        44  MOL       H26            -3.2195836739       -1.0008508423       17.7112672443  SYS       44              0.0000000000
      1575        44  MOL       C27            -2.2059230895       -0.7900536916       19.4697960141  SYS       44              0.0000000000
      1576        44  MOL       C28            -0.8137917315       -0.4268114934       21.4904059862  SYS       44              0.0000000000
      1577        44  MOL       H29             0.7540490989        2.3246469328        9.8425232581  SYS       44              0.0000000000
      1578        44  MOL       C30            -3.1808596005       -1.4365620682       20.3134273540  SYS       44              0.0000000000
      1579        44  MOL       C31            -1.7648603549       -1.0404057318       22.2397432626  SYS       44              0.0000000000
      1580        44  MOL       H32            -0.0231127782       -0.0932045880       21.8987620760  SYS       44              0.0000000000
      1581        44  MOL       C33            -2.9519970311       -1.5564063431       21.6420306126  SYS       44              0.0000000000
      1582        44  MOL       H34            -3.9769592781       -1.7843454663       19.9301744327  SYS       44              0.0000000000
      1583        44  MOL       H35            -1.6423090551       -1.1338323317       23.1775549706  SYS       44              0.0000000000
      1584        44  MOL       H36            -3.5938199256       -1.9962615093       22.1869347101  SYS       44              0.0000000000
      1585        45  MOL       C1             -1.6356565958       -2.7227184039        2.5189193943  SYS       45              0.0000000000
      1586        45  MOL       C2             -2.6553366138       -3.3488463320        3.2747603598  SYS       45              0.0000000000
      1587        45  MOL       C3             -0.4609348352       -2.1941959784        3.1964723990  SYS       45              0.0000000000
      1588        45  MOL       C4             -1.7473852372       -2.6210326940        1.1244115073  SYS       45              0.0000000000
      1589        45  MOL       C5             -2.5164912700       -3.4700721798        4.6524838773  SYS       45              0.0000000000
      1590        45  MOL       H6             -3.4237109177       -3.6980713923        2.8378193451  SYS       45              0.0000000000
      1591        45  MOL       C7             -0.3467085915       -2.3199008309        4.5916426551  SYS       45              0.0000000000
      1592        45  MOL       C8              0.5477181127       -1.5674483062        2.4526878398  SYS       45              0.0000000000
      1593        45  MOL       C9             -0.7317174887       -2.0069275626        0.3796277905  SYS       45              0.0000000000
      1594        45  MOL       H10            -2.5099280382       -2.9753584950        0.6837946976  SYS       45              0.0000000000
      1595        45  MOL       C11            -3.5290297200       -4.1294262706        5.4400155702  SYS       45              0.0000000000
      1596        45  MOL       C12            -1.3430801121       -2.9568177025        5.3190580192  SYS       45              0.0000000000
      1597        45  MOL       H13             0.4209078711       -1.9772315575        5.0353775508  SYS       45              0.0000000000
      1598        45  MOL       H14             1.3109997072       -1.2145046223        2.8931346856  SYS       45              0.0000000000
      1599        45  MOL       C15             0.4372909942       -1.4669049390        1.0579934655  SYS       45              0.0000000000
      1600        45  MOL       C16            -0.8311033054       -1.9120839372       -1.0191132722  SYS       45              0.0000000000
      1601        45  MOL       C17            -3.3611010409       -4.2732778978        6.7753185356  SYS       45              0.0000000000
      1602        45  MOL       H18            -4.3038951682       -4.4751090167        5.0137553606  SYS       45              0.0000000000
      1603        45  MOL       C19            -1.2261790747       -3.1270772256        6.7415619782  SYS       45              0.0000000000
      1604        45  MOL       C20             1.4554697817       -0.8393516071        0.3013113296  SYS       45              0.0000000000
      1605        45  MOL       C21             0.1769793822       -1.2970688167       -1.7492352668  SYS       45              0.0000000000
      1606        45  MOL       H22            -1.5906481122       -2.2708396410       -1.4640221908  SYS       45              0.0000000000
      1607        45  MOL       C23            -2.2015178207       -3.7688694622        7.4339151003  SYS       45              0.0000000000
      1608        45  MOL       H24            -4.0265817537       -4.7249298502        7.2807644648  SYS       45              0.0000000000
      1609        45  MOL       H25            -0.4574207404       -2.7960054233        7.1916992320  SYS       45              0.0000000000
      1610        45  MOL       H26             2.2173621503       -0.4773852579        0.7392326142  SYS       45              0.0000000000
      1611        45  MOL       C27             1.3356739807       -0.7536127940       -1.0808585832  SYS       45              0.0000000000
      1612        45  MOL       C28             0.0893357441       -1.1880976707       -3.1798349876  SYS       45              0.0000000000
      1613        45  MOL       H29            -2.1134882477       -3.8860756427        8.3729314158  SYS       45              0.0000000000
      1614        45  MOL       C30             2.3563338779       -0.1126213674       -1.8730526629  SYS       45              0.0000000000
      1615        45  MOL       C31             1.0816486992       -0.5780328510       -3.8767364773  SYS       45              0.0000000000
      1616        45  MOL       H32            -0.6666834243       -1.5445868307       -3.6321313120  SYS       45              0.0000000000
      1617        45  MOL       C33             2.2208004815       -0.0301570027       -3.2172095295  SYS       45              0.0000000000
      1618        45  MOL       H34             3.1199872054        0.2549404251       -1.4448672895  SYS       45              0.0000000000
      1619        45  MOL       H35             1.0182070976       -0.5041080231       -4.8221191647  SYS       45              0.0000000000
      1620        45  MOL       H36             2.8917671122        0.4017862750       -3.7325331640  SYS       45              0.0000000000
      1621        46  MOL       C1              3.2631400305      -10.6021677124       13.8305066085  SYS       46              0.0000000000
      1622        46  MOL       C2              4.2582606354      -10.5290054224       12.8245340564  SYS       46              0.0000000000
      1623        46  MOL       C3              1.9781846878       -9.9415101401       13.6168440182  SYS       46              0.0000000000
      1624        46  MOL       C4              3.4977271568      -11.3097749728       15.0168970595  SYS       46              0.0000000000
      1625        46  MOL       C5              4.0030080665       -9.8496102205       11.6467235661  SYS       46              0.0000000000
      1626        46  MOL       H6              5.0939315257      -10.9614536070       12.9564333848  SYS       46              0.0000000000
      1627        46  MOL       C7              1.7484060087       -9.2399829704       12.4163931615  SYS       46              0.0000000000
      1628        46  MOL       C8              0.9851914660      -10.0141609339       14.6007895862  SYS       46              0.0000000000
      1629        46  MOL       C9              2.5025289573      -11.3889911491       15.9981044210  SYS       46              0.0000000000
      1630        46  MOL       H10             4.3329921616      -11.7414045750       15.1524656552  SYS       46              0.0000000000
      1631        46  MOL       C11             4.9814083740       -9.8010128018       10.6048269632  SYS       46              0.0000000000
      1632        46  MOL       C12             2.7322214174       -9.1921327530       11.4387564863  SYS       46              0.0000000000
      1633        46  MOL       H13             0.9130357313       -8.8100568093       12.2751200570  SYS       46              0.0000000000
      1634        46  MOL       H14             0.1491723505       -9.5841895657       14.4646013047  SYS       46              0.0000000000
      1635        46  MOL       C15             1.2199468418      -10.7231341741       15.7863309511  SYS       46              0.0000000000
      1636        46  MOL       C16             2.7215108761      -12.1073567837       17.1905886261  SYS       46              0.0000000000
      1637        46  MOL       C17             4.7100660960       -9.1599421745        9.4435674892  SYS       46              0.0000000000
      1638        46  MOL       H18             5.8186436109      -10.2330641572       10.7253539147  SYS       46              0.0000000000
      1639        46  MOL       C19             2.5045685047       -8.5057111889       10.2082649345  SYS       46              0.0000000000
      1640        46  MOL       C20             0.2216672763      -10.7969527919       16.7891206694  SYS       46              0.0000000000
      1641        46  MOL       C21             1.7301288932      -12.1696106799       18.1597336656  SYS       46              0.0000000000
      1642        46  MOL       H22             3.5524556614      -12.5465574706       17.3294108373  SYS       46              0.0000000000
      1643        46  MOL       C23             3.4594024712       -8.4944592211        9.2458719203  SYS       46              0.0000000000
      1644        46  MOL       H24             5.3537968386       -9.1534648503        8.7453614336  SYS       46              0.0000000000
      1645        46  MOL       H25             1.6759650426       -8.0629594943       10.0646543030  SYS       46              0.0000000000
      1646        46  MOL       H26            -0.6115392997      -10.3595294174       16.6580394756  SYS       46              0.0000000000
      1647        46  MOL       C27             0.4669868504      -11.4957740518       17.9576395628  SYS       46              0.0000000000
      1648        46  MOL       C28             1.9354794862      -12.8942102932       19.3721265044  SYS       46              0.0000000000
      1649        46  MOL       H29             3.3038227562       -8.0425293209        8.4247086034  SYS       46              0.0000000000
      1650        46  MOL       C30            -0.5198206953      -11.5545850941       18.9910463241  SYS       46              0.0000000000
      1651        46  MOL       C31             0.9695602694      -12.9253011726       20.3229515512  SYS       46              0.0000000000
      1652        46  MOL       H32             2.7562675005      -13.3526690612       19.5112644298  SYS       46              0.0000000000
      1653        46  MOL       C33            -0.2672507044      -12.2313881499       20.1361523203  SYS       46              0.0000000000
      1654        46  MOL       H34            -1.3514461425      -11.1107835200       18.8744390501  SYS       46              0.0000000000
      1655        46  MOL       H35             1.1088415802      -13.4099795191       21.1282108236  SYS       46              0.0000000000
      1656        46  MOL       H36            -0.9197742051      -12.2480053924       20.8259782910  SYS       46              0.0000000000
      1657        47  MOL       C1              4.0248486847        9.4535358386        2.8533444899  SYS       47              0.0000000000
      1658        47  MOL       C2              5.0745930067        9.5002010255        1.9028405658  SYS       47              0.0000000000
      1659        47  MOL       C3              2.7573044306       10.1153175620        2.5556753595  SYS       47              0.0000000000
      1660        47  MOL       C4              4.1932892055        8.7769332212        4.0687037566  SYS       47              0.0000000000
      1661        47  MOL       C5              4.8880197016       10.1509405722        0.6963175738  SYS       47              0.0000000000
      1662        47  MOL       H6              5.9029287362        9.0760315625        2.0943996438  SYS       47              0.0000000000
      1663        47  MOL       C7              2.5917883383       10.7703554660        1.3189253391  SYS       47              0.0000000000
      1664        47  MOL       C8              1.7204621691       10.0862840404        3.4956635008  SYS       47              0.0000000000
      1665        47  MOL       C9              3.1514745879        8.7386247823        5.0028436340  SYS       47              0.0000000000
      1666        47  MOL       H10             5.0172977946        8.3440278499        4.2583174968  SYS       47              0.0000000000
      1667        47  MOL       C11             5.9369793927       10.2031147348       -0.2743207915  SYS       47              0.0000000000
      1668        47  MOL       C12             3.6235476933       10.7819999260        0.3908666500  SYS       47              0.0000000000
      1669        47  MOL       H13             1.7656402794       11.1950999931        1.1196527689  SYS       47              0.0000000000
      1670        47  MOL       H14             0.8981819378       10.5234441854        3.3083220397  SYS       47              0.0000000000
      1671        47  MOL       C15             1.8885077253        9.4123250104        4.7125453343  SYS       47              0.0000000000
      1672        47  MOL       C16             3.3108582017        8.0620915921        6.2287802401  SYS       47              0.0000000000
      1673        47  MOL       C17             5.7366316467       10.8184837272       -1.4635657191  SYS       47              0.0000000000
      1674        47  MOL       H18             6.7749690710        9.7983845749       -0.0842556310  SYS       47              0.0000000000
      1675        47  MOL       C19             3.4541237313       11.4010752777       -0.8839474941  SYS       47              0.0000000000
      1676        47  MOL       C20             0.8473911243        9.3835190103        5.6731935158  SYS       47              0.0000000000
      1677        47  MOL       C21             2.2819412395        8.0562089186        7.1600434396  SYS       47              0.0000000000
      1678        47  MOL       H22             4.1311497254        7.6231119603        6.4212816467  SYS       47              0.0000000000
      1679        47  MOL       C23             4.4718477975       11.4071601177       -1.7796235042  SYS       47              0.0000000000
      1680        47  MOL       H24             6.4402947781       10.8565832717       -2.1002206776  SYS       47              0.0000000000
      1681        47  MOL       H25             2.6236232654       11.8077835173       -1.1032513000  SYS       47              0.0000000000
      1682        47  MOL       H26             0.0275186344        9.8280639111        5.4916897035  SYS       47              0.0000000000
      1683        47  MOL       C27             1.0338247965        8.7292510199        6.8778283712  SYS       47              0.0000000000
      1684        47  MOL       C28             2.4421063811        7.4040486581        8.4194655155  SYS       47              0.0000000000
      1685        47  MOL       H29             4.3530532203       11.8057954371       -2.6338673940  SYS       47              0.0000000000
      1686        47  MOL       C30             0.0087864627        8.7255335779        7.8750545222  SYS       47              0.0000000000
      1687        47  MOL       C31             1.4485592044        7.4436213722        9.3410580641  SYS       47              0.0000000000
      1688        47  MOL       H32             3.2559548732        6.9523697996        8.6114905533  SYS       47              0.0000000000
      1689        47  MOL       C33             0.2170377873        8.1175820217        9.0667541527  SYS       47              0.0000000000
      1690        47  MOL       H34            -0.8151692458        9.1661273968        7.7043733727  SYS       47              0.0000000000
      1691        47  MOL       H35             1.5652422647        7.0225527278       10.1847648574  SYS       47              0.0000000000
      1692        47  MOL       H36            -0.4569136785        8.1419052706        9.7354250208  SYS       47              0.0000000000
      1693        48  MOL       C1              3.9337974561       11.8181321154      -11.2735811429  SYS       48              0.0000000000
      1694        48  MOL       C2              4.9810379757       11.8566520883      -12.2272068580  SYS       48              0.0000000000
      1695        48  MOL       C3              2.6790291168       12.5088795728      -11.5593340727  SYS       48              0.0000000000
      1696        48  MOL       C4              4.0908794900       11.1243630643      -10.0664062519  SYS       48              0.0000000000
      1697        48  MOL       C5              4.8110650031       12.5452731604      -13.4150113348  SYS       48              0.0000000000
      1698        48  MOL       H6              5.7964363166       11.4023165423      -12.0498387341  SYS       48              0.0000000000
      1699        48  MOL       C7              2.5348685969       13.2156089506      -12.7700248566  SYS       48              0.0000000000
      1700        48  MOL       C8              1.6317099360       12.4633043483      -10.6316983790  SYS       48              0.0000000000
      1701        48  MOL       C9              3.0506923412       11.0935741303       -9.1301769691  SYS       48              0.0000000000
      1702        48  MOL       H10             4.9092016656       10.6790735016       -9.8808891158  SYS       48              0.0000000000
      1703        48  MOL       C11             5.8475325440       12.5713588120      -14.4000148805  SYS       48              0.0000000000
      1704        48  MOL       C12             3.5741041472       13.2417361837      -13.6894065632  SYS       48              0.0000000000
      1705        48  MOL       H13             1.7206787407       13.6682853462      -12.9566181375  SYS       48              0.0000000000
      1706        48  MOL       H14             0.8127134591       12.9070387766      -10.8179646685  SYS       48              0.0000000000
      1707        48  MOL       C15             1.7896180379       11.7688389794       -9.4250317550  SYS       48              0.0000000000
      1708        48  MOL       C16             3.2066626262       10.4266514632       -7.8985486591  SYS       48              0.0000000000
      1709        48  MOL       C17             5.6634637031       13.2297407271      -15.5686780612  SYS       48              0.0000000000
      1710        48  MOL       H18             6.6645666899       12.1159375218      -14.2350766467  SYS       48              0.0000000000
      1711        48  MOL       C19             3.4399665484       13.9471667893      -14.9228913006  SYS       48              0.0000000000
      1712        48  MOL       C20             0.7349642218       11.7207452506       -8.4800498374  SYS       48              0.0000000000
      1713        48  MOL       C21             2.1721065146       10.4164604314       -6.9735915336  SYS       48              0.0000000000
      1714        48  MOL       H22             4.0290400331        9.9945206964       -7.6995600029  SYS       48              0.0000000000
      1715        48  MOL       C23             4.4474217760       13.9361642793      -15.8300559795  SYS       48              0.0000000000
      1716        48  MOL       H24             6.3498532993       13.2231910150      -16.2249930277  SYS       48              0.0000000000
      1717        48  MOL       H25             2.6354940358       14.4182303977      -15.1077150529  SYS       48              0.0000000000
      1718        48  MOL       H26            -0.0893017933       12.1531205221       -8.6708163293  SYS       48              0.0000000000
      1719        48  MOL       C27             0.9126153023       11.0573942091       -7.2790607610  SYS       48              0.0000000000
      1720        48  MOL       C28             2.3330118980        9.7898149012       -5.7013750889  SYS       48              0.0000000000
      1721        48  MOL       H29             4.3495460576       14.3997519562      -16.6536224235  SYS       48              0.0000000000
      1722        48  MOL       C30            -0.1422797799       11.0036322808       -6.3149635497  SYS       48              0.0000000000
      1723        48  MOL       C31             1.3108849989        9.7839678714       -4.8107251978  SYS       48              0.0000000000
      1724        48  MOL       H32             3.1607779989        9.3782612792       -5.4807766475  SYS       48              0.0000000000
      1725        48  MOL       C33             0.0494226995       10.3782735834       -5.1295107354  SYS       48              0.0000000000
      1726        48  MOL       H34            -0.9775451577       11.4134121078       -6.5061969423  SYS       48              0.0000000000
      1727        48  MOL       H35             1.4238047257        9.3815384015       -3.9574640806  SYS       48              0.0000000000
      1728        48  MOL       H36            -0.6581331171       10.3377473044       -4.4973356803  SYS       48              0.0000000000
      1729        49  MOL       C1              1.6341728048        1.8179705740        3.5088620219  SYS       49              0.0000000000
      1730        49  MOL       C2              0.5885732684        1.7630021512        4.4634816349  SYS       49              0.0000000000
      1731        49  MOL       C3              2.8988098183        1.1444772262        3.7922880307  SYS       49              0.0000000000
      1732        49  MOL       C4              1.4643383811        2.5044706679        2.2992606935  SYS       49              0.0000000000
      1733        49  MOL       C5              0.7667159036        1.0713064655        5.6482987273  SYS       49              0.0000000000
      1734        49  MOL       H6             -0.2347330641        2.2026374595        4.2855991855  SYS       49              0.0000000000
      1735        49  MOL       C7              3.0552647423        0.4430342464        5.0045258217  SYS       49              0.0000000000
      1736        49  MOL       C8              3.9405839913        1.1961564060        2.8587472518  SYS       49              0.0000000000
      1737        49  MOL       C9              2.4983896411        2.5395369863        1.3564081586  SYS       49              0.0000000000
      1738        49  MOL       H10             0.6396058375        2.9379716565        2.1142100693  SYS       49              0.0000000000
      1739        49  MOL       C11            -0.2752277058        1.0098847426        6.6259276576  SYS       49              0.0000000000
      1740        49  MOL       C12             2.0161430261        0.3977061445        5.9232898361  SYS       49              0.0000000000
      1741        49  MOL       H13             3.8757847824        0.0011039317        5.1891404542  SYS       49              0.0000000000
      1742        49  MOL       H14             4.7644403851        0.7604461871        3.0425075583  SYS       49              0.0000000000
      1743        49  MOL       C15             3.7677187403        1.8780078966        1.6469478957  SYS       49              0.0000000000
      1744        49  MOL       C16             2.3277670077        3.1934520287        0.1197578663  SYS       49              0.0000000000
      1745        49  MOL       C17            -0.0877431572        0.3381300854        7.7864090037  SYS       49              0.0000000000
      1746        49  MOL       H18            -1.1010136300        1.4485825102        6.4592547855  SYS       49              0.0000000000
      1747        49  MOL       C19             2.1604427663       -0.3109560551        7.1537715729  SYS       49              0.0000000000
      1748        49  MOL       C20             4.8127762516        1.9222448585        0.6911778194  SYS       49              0.0000000000
      1749        49  MOL       C21             3.3527204675        3.1997814852       -0.8158629313  SYS       49              0.0000000000
      1750        49  MOL       H22             1.5003422424        3.6172265289       -0.0762562928  SYS       49              0.0000000000
      1751        49  MOL       C23             1.1456081658       -0.3358176522        8.0523969009  SYS       49              0.0000000000
      1752        49  MOL       H24            -0.7799448173        0.3141103244        8.4361803740  SYS       49              0.0000000000
      1753        49  MOL       H25             2.9747428359       -0.7647422982        7.3387856476  SYS       49              0.0000000000
      1754        49  MOL       H26             5.6412973059        1.4964673328        0.8783170055  SYS       49              0.0000000000
      1755        49  MOL       C27             4.6184732390        2.5683068819       -0.5166381925  SYS       49              0.0000000000
      1756        49  MOL       C28             3.1756582162        3.8110490247       -2.0934038606  SYS       49              0.0000000000
      1757        49  MOL       H29             1.2481283229       -0.8042606993        8.8726441845  SYS       49              0.0000000000
      1758        49  MOL       C30             5.6603620582        2.6113868316       -1.4953052678  SYS       49              0.0000000000
      1759        49  MOL       C31             4.1868693789        3.8102942599       -2.9964466572  SYS       49              0.0000000000
      1760        49  MOL       H32             2.3436423223        4.2167114757       -2.3088668980  SYS       49              0.0000000000
      1761        49  MOL       C33             5.4526429497        3.2204924507       -2.6865083976  SYS       49              0.0000000000
      1762        49  MOL       H34             6.4987123557        2.2054466924       -1.3094575636  SYS       49              0.0000000000
      1763        49  MOL       H35             4.0631283353        4.2048587224       -3.8518775126  SYS       49              0.0000000000
      1764        49  MOL       H36             6.1516528346        3.2530602855       -3.3285733959  SYS       49              0.0000000000
      1765        50  MOL       C1              1.4656214705        4.1334104676      -10.5803647734  SYS       50              0.0000000000
      1766        50  MOL       C2              0.4182086184        4.0913162035       -9.6270794484  SYS       50              0.0000000000
      1767        50  MOL       C3              2.7350979800        3.4753311440      -10.2827216909  SYS       50              0.0000000000
      1768        50  MOL       C4              1.2947962235        4.8093674319      -11.7957504776  SYS       50              0.0000000000
      1769        50  MOL       C5              0.6113045735        3.4527464179       -8.4150927200  SYS       50              0.0000000000
      1770        50  MOL       H6             -0.4101366222        4.5159750647       -9.8175097932  SYS       50              0.0000000000
      1771        50  MOL       C7              2.9032458486        2.8249526106       -9.0438694195  SYS       50              0.0000000000
      1772        50  MOL       C8              3.7729486790        3.5101823227      -11.2213983611  SYS       50              0.0000000000
      1773        50  MOL       C9              2.3397528887        4.8598886127      -12.7257912135  SYS       50              0.0000000000
      1774        50  MOL       H10             0.4701770730        5.2413602525      -11.9847903603  SYS       50              0.0000000000
      1775        50  MOL       C11            -0.4304023613        3.4174983095       -7.4359187526  SYS       50              0.0000000000
      1776        50  MOL       C12             1.8765709649        2.8230502174       -8.1101184195  SYS       50              0.0000000000
      1777        50  MOL       H13             3.7308678663        2.4031584622       -8.8444462666  SYS       50              0.0000000000
      1778        50  MOL       H14             4.5977943791        3.0787111261      -11.0321556919  SYS       50              0.0000000000
      1779        50  MOL       C15             3.6054569326        4.1920103799      -12.4339652827  SYS       50              0.0000000000
      1780        50  MOL       C16             2.1848643603        5.5504380034      -13.9444675355  SYS       50              0.0000000000
      1781        50  MOL       C17            -0.2207198500        2.8236159688       -6.2373951924  SYS       50              0.0000000000
      1782        50  MOL       H18            -1.2689947459        3.8212434630       -7.6254197611  SYS       50              0.0000000000
      1783        50  MOL       C19             2.0539863996        2.2214133086       -6.8280627881  SYS       50              0.0000000000
      1784        50  MOL       C20             4.6537376668        4.2407366172      -13.3859798855  SYS       50              0.0000000000
      1785        50  MOL       C21             3.2251886929        5.5884638666      -14.8622012820  SYS       50              0.0000000000
      1786        50  MOL       H22             1.3624583223        5.9855410990      -14.1367478626  SYS       50              0.0000000000
      1787        50  MOL       C23             1.0447965688        2.2356914919       -5.9228739323  SYS       50              0.0000000000
      1788        50  MOL       H24            -0.9183493895        2.8006917362       -5.5934150558  SYS       50              0.0000000000
      1789        50  MOL       H25             2.8851800812        1.8155190956       -6.6098800236  SYS       50              0.0000000000
      1790        50  MOL       H26             5.4759694729        3.8006608132      -13.2042579629  SYS       50              0.0000000000
      1791        50  MOL       C27             4.4748614304        4.9189662258      -14.5784467302  SYS       50              0.0000000000
      1792        50  MOL       C28             3.0795646085        6.2757813089      -16.1045773346  SYS       50              0.0000000000
      1793        50  MOL       H29             1.1696575541        1.8519015109       -5.0627170495  SYS       50              0.0000000000
      1794        50  MOL       C30             5.5132866224        4.9560555328      -15.5610325889  SYS       50              0.0000000000
      1795        50  MOL       C31             4.0908934137        6.2796076446      -17.0074805889  SYS       50              0.0000000000
      1796        50  MOL       H32             2.2647397110        6.7249077886      -16.2984396168  SYS       50              0.0000000000
      1797        50  MOL       C33             5.3205003285        5.6011501285      -16.7356849581  SYS       50              0.0000000000
      1798        50  MOL       H34             6.3377715594        4.5164770160      -15.3902892025  SYS       50              0.0000000000
      1799        50  MOL       H35             3.9867207613        6.7337057487      -17.8355493543  SYS       50              0.0000000000
      1800        50  MOL       H36             6.0085512285        5.6037091349      -17.3902858717  SYS       50              0.0000000000
      1801        51  MOL       C1              3.9473227329        4.6213237544       16.0842264629  SYS       51              0.0000000000
      1802        51  MOL       C2              4.9540320516        4.7043242543       15.0906240496  SYS       51              0.0000000000
      1803        51  MOL       C3              2.6673212033        5.2899405241       15.8656444815  SYS       51              0.0000000000
      1804        51  MOL       C4              4.1714502556        3.9077813849       17.2690832479  SYS       51              0.0000000000
      1805        51  MOL       C5              4.7188986011        5.4108015716       13.9246174550  SYS       51              0.0000000000
      1806        51  MOL       H6              5.7880421972        4.2702521332       15.2276028172  SYS       51              0.0000000000
      1807        51  MOL       C7              2.4534596423        6.0090652609       14.6726886035  SYS       51              0.0000000000
      1808        51  MOL       C8              1.6674809282        5.2174477277       16.8426433239  SYS       51              0.0000000000
      1809        51  MOL       C9              3.1729638027        3.8378295956       18.2476506063  SYS       51              0.0000000000
      1810        51  MOL       H10             5.0051973441        3.4746200634       17.4090391855  SYS       51              0.0000000000
      1811        51  MOL       C11             5.7186813456        5.4924600519       12.9053315135  SYS       51              0.0000000000
      1812        51  MOL       C12             3.4533009028        6.0769547925       13.7126550796  SYS       51              0.0000000000
      1813        51  MOL       H13             1.6228198124        6.4474447061       14.5295137305  SYS       51              0.0000000000
      1814        51  MOL       H14             0.8356456959        5.6549786776       16.7049211359  SYS       51              0.0000000000
      1815        51  MOL       C15             1.8941909664        4.5091444155       18.0301493004  SYS       51              0.0000000000
      1816        51  MOL       C16             3.3899978521        3.1316066849       19.4477198972  SYS       51              0.0000000000
      1817        51  MOL       C17             5.4743906613        6.1756939066       11.7622500088  SYS       51              0.0000000000
      1818        51  MOL       H18             6.5540510227        5.0583114216       13.0311506183  SYS       51              0.0000000000
      1819        51  MOL       C19             3.2530667676        6.8045220344       12.5011840394  SYS       51              0.0000000000
      1820        51  MOL       C20             0.8957239844        4.4494394940       19.0336917883  SYS       51              0.0000000000
      1821        51  MOL       C21             2.4005873947        3.0887417989       20.4199263653  SYS       51              0.0000000000
      1822        51  MOL       H22             4.2203900423        2.6931810754       19.5921840425  SYS       51              0.0000000000
      1823        51  MOL       C23             4.2288177209        6.8496111352       11.5610181520  SYS       51              0.0000000000
      1824        51  MOL       H24             6.1348349166        6.2072706498       11.0805321495  SYS       51              0.0000000000
      1825        51  MOL       H25             2.4293428238        7.2562992196       12.3576116278  SYS       51              0.0000000000
      1826        51  MOL       H26             0.0656447251        4.8918330324       18.8994864133  SYS       51              0.0000000000
      1827        51  MOL       C27             1.1396626205        3.7645584094       20.2107224139  SYS       51              0.0000000000
      1828        51  MOL       C28             2.6093040511        2.3885439614       21.6460055578  SYS       51              0.0000000000
      1829        51  MOL       H29             4.0915566441        7.3324295963       10.7542959960  SYS       51              0.0000000000
      1830        51  MOL       C30             0.1566877107        3.7294265042       21.2488473984  SYS       51              0.0000000000
      1831        51  MOL       C31             1.6476053066        2.3806975812       22.6015728079  SYS       51              0.0000000000
      1832        51  MOL       H32             3.4298568310        1.9316331841       21.7914787486  SYS       51              0.0000000000
      1833        51  MOL       C33             0.4112583402        3.0727911790       22.4051974995  SYS       51              0.0000000000
      1834        51  MOL       H34            -0.6726057282        4.1764859662       21.1281486134  SYS       51              0.0000000000
      1835        51  MOL       H35             1.7900589832        1.9135367950       23.4165713507  SYS       51              0.0000000000
      1836        51  MOL       H36            -0.2389426310        3.0700828712       23.0974072027  SYS       51              0.0000000000
      1837        52  MOL       C1              3.5467548177       -3.0123743608       15.0257479914  SYS       52              0.0000000000
      1838        52  MOL       C2              4.5535203371       -2.9520075949       14.0305708268  SYS       52              0.0000000000
      1839        52  MOL       C3              2.2629408574       -2.3573871577       14.7890120312  SYS       52              0.0000000000
      1840        52  MOL       C4              3.7724401339       -3.7014050220       16.2247327257  SYS       52              0.0000000000
      1841        52  MOL       C5              4.3098566101       -2.2901300497       12.8403962965  SYS       52              0.0000000000
      1842        52  MOL       H6              5.3884337109       -3.3811073522       14.1773623755  SYS       52              0.0000000000
      1843        52  MOL       C7              2.0450734839       -1.6743718957       13.5757334808  SYS       52              0.0000000000
      1844        52  MOL       C8              1.2601752210       -2.4185516882       15.7637851174  SYS       52              0.0000000000
      1845        52  MOL       C9              2.7679221681       -3.7650552468       17.1975404646  SYS       52              0.0000000000
      1846        52  MOL       H10             4.6076981921       -4.1278530541       16.3758507939  SYS       52              0.0000000000
      1847        52  MOL       C11             5.2998228008       -2.2548419840       11.8089414247  SYS       52              0.0000000000
      1848        52  MOL       C12             3.0400395652       -1.6386622439       12.6089226123  SYS       52              0.0000000000
      1849        52  MOL       H13             1.2103157150       -1.2484228357       13.4195765669  SYS       52              0.0000000000
      1850        52  MOL       H14             0.4251804989       -1.9914047953       15.6131864831  SYS       52              0.0000000000
      1851        52  MOL       C15             1.4852539851       -3.1069530296       16.9632452749  SYS       52              0.0000000000
      1852        52  MOL       C16             2.9822528731       -4.4560449873       18.4069272548  SYS       52              0.0000000000
      1853        52  MOL       C17             5.0399792471       -1.6325237242       10.6349213759  SYS       52              0.0000000000
      1854        52  MOL       H18             6.1363146094       -2.6835441413       11.9455206770  SYS       52              0.0000000000
      1855        52  MOL       C19             2.8235273586       -0.9737100292       11.3647076351  SYS       52              0.0000000000
      1856        52  MOL       C20             0.4802978335       -3.1623244983       17.9605394426  SYS       52              0.0000000000
      1857        52  MOL       C21             1.9885978715       -4.4897857664       19.3751561704  SYS       52              0.0000000000
      1858        52  MOL       H22             3.8142771587       -4.8877618025       18.5618281552  SYS       52              0.0000000000
      1859        52  MOL       C23             3.7894654763       -0.9743053019       10.4133937728  SYS       52              0.0000000000
      1860        52  MOL       H24             5.6914376193       -1.6357562038        9.9438971585  SYS       52              0.0000000000
      1861        52  MOL       H25             1.9950080501       -0.5366179404       11.2042612444  SYS       52              0.0000000000
      1862        52  MOL       H26            -0.3525750705       -2.7289391130       17.8147500281  SYS       52              0.0000000000
      1863        52  MOL       C27             0.7242120071       -3.8257264410       19.1498136118  SYS       52              0.0000000000
      1864        52  MOL       C28             2.1989047591       -5.1659660149       20.6143741438  SYS       52              0.0000000000
      1865        52  MOL       H29             3.6420556156       -0.5363737604        9.5831882534  SYS       52              0.0000000000
      1866        52  MOL       C30            -0.2606204995       -3.8465145847       20.1865634633  SYS       52              0.0000000000
      1867        52  MOL       C31             1.2384831374       -5.1525414958       21.5711630223  SYS       52              0.0000000000
      1868        52  MOL       H32             3.0214687852       -5.6161556650       20.7691465398  SYS       52              0.0000000000
      1869        52  MOL       C33            -0.0007606179       -4.4700734956       21.3599214201  SYS       52              0.0000000000
      1870        52  MOL       H34            -1.0928729968       -3.4080698136       20.0551102368  SYS       52              0.0000000000
      1871        52  MOL       H35             1.3840340697       -5.5976452162       22.3978748856  SYS       52              0.0000000000
      1872        52  MOL       H36            -0.6465021759       -4.4546906998       22.0561283912  SYS       52              0.0000000000
      1873        53  MOL       C1              3.3029853827       -3.3911597863      -13.6246759073  SYS       53              0.0000000000
      1874        53  MOL       C2              4.3545883791       -3.3519363276      -14.5734599615  SYS       53              0.0000000000
      1875        53  MOL       C3              2.0439306945       -2.7128601140      -13.9211910091  SYS       53              0.0000000000
      1876        53  MOL       C4              3.4612347045       -4.0752276749      -12.4121291126  SYS       53              0.0000000000
      1877        53  MOL       C5              4.1844451454       -2.6736547568      -15.7671746112  SYS       53              0.0000000000
      1878        53  MOL       H6              5.1725271332       -3.7990376116      -14.3895270281  SYS       53              0.0000000000
      1879        53  MOL       C7              1.9005299840       -2.0156190439      -15.1374607191  SYS       53              0.0000000000
      1880        53  MOL       C8              0.9923811266       -2.7626757711      -12.9985727630  SYS       53              0.0000000000
      1881        53  MOL       C9              2.4157592453       -4.1105932183      -11.4819716728  SYS       53              0.0000000000
      1882        53  MOL       H10             4.2826656683       -4.5113993489      -12.2188520184  SYS       53              0.0000000000
      1883        53  MOL       C11             5.2254164553       -2.6468001869      -16.7473965127  SYS       53              0.0000000000
      1884        53  MOL       C12             2.9430526907       -1.9898390977      -16.0531231506  SYS       53              0.0000000000
      1885        53  MOL       H13             1.0835667687       -1.5705907617      -15.3302274645  SYS       53              0.0000000000
      1886        53  MOL       H14             0.1707082609       -2.3271257587      -13.1922231979  SYS       53              0.0000000000
      1887        53  MOL       C15             1.1497678390       -3.4493759716      -11.7874023665  SYS       53              0.0000000000
      1888        53  MOL       C16             2.5714148375       -4.7691721554      -10.2458220043  SYS       53              0.0000000000
      1889        53  MOL       C17             5.0422557417       -1.9958498998      -17.9203575480  SYS       53              0.0000000000
      1890        53  MOL       H18             6.0447688235       -3.0953606151      -16.5753116304  SYS       53              0.0000000000
      1891        53  MOL       C19             2.8064491728       -1.2988251374      -17.2944728274  SYS       53              0.0000000000
      1892        53  MOL       C20             0.0907066425       -3.5014223569      -10.8475730837  SYS       53              0.0000000000
      1893        53  MOL       C21             1.5326719481       -4.7827948564       -9.3256135803  SYS       53              0.0000000000
      1894        53  MOL       H22             3.3968459159       -5.1921999907      -10.0400330658  SYS       53              0.0000000000
      1895        53  MOL       C23             3.8201647390       -1.3049448332      -18.1946828839  SYS       53              0.0000000000
      1896        53  MOL       H24             5.7338465474       -1.9981275293      -18.5712184255  SYS       53              0.0000000000
      1897        53  MOL       H25             1.9973441943       -0.8397831733      -17.4890656704  SYS       53              0.0000000000
      1898        53  MOL       H26            -0.7363143393       -3.0776288720      -11.0455379292  SYS       53              0.0000000000
      1899        53  MOL       C27             0.2698573380       -4.1529924020       -9.6403735108  SYS       53              0.0000000000
      1900        53  MOL       C28             1.6932453133       -5.4003863161       -8.0489355383  SYS       53              0.0000000000
      1901        53  MOL       H29             3.7222838810       -0.8483008527      -19.0221189788  SYS       53              0.0000000000
      1902        53  MOL       C30            -0.7857847918       -4.2028130958       -8.6768824467  SYS       53              0.0000000000
      1903        53  MOL       C31             0.6698825678       -5.4028117730       -7.1596899913  SYS       53              0.0000000000
      1904        53  MOL       H32             2.5226810651       -5.8063197087       -7.8242330899  SYS       53              0.0000000000
      1905        53  MOL       C33            -0.5925942592       -4.8137739588       -7.4841855164  SYS       53              0.0000000000
      1906        53  MOL       H34            -1.6224926145       -3.7984758329       -8.8733241942  SYS       53              0.0000000000
      1907        53  MOL       H35             0.7835077074       -5.7990718306       -6.3036396582  SYS       53              0.0000000000
      1908        53  MOL       H36            -1.2991723226       -4.8479213973       -6.8505418414  SYS       53              0.0000000000
      1909        54  MOL       C1              1.2568758641       -5.8067228351        2.2972183594  SYS       54              0.0000000000
      1910        54  MOL       C2              0.2127149398       -5.8409389267        3.2543785937  SYS       54              0.0000000000
      1911        54  MOL       C3              2.5163604406       -6.4870056675        2.5872946701  SYS       54              0.0000000000
      1912        54  MOL       C4              1.0943285409       -5.1266636112        1.0829863892  SYS       54              0.0000000000
      1913        54  MOL       C5              0.3910748559       -6.5081354544        4.4531303694  SYS       54              0.0000000000
      1914        54  MOL       H6             -0.6061548534       -5.3945214910        3.0729442273  SYS       54              0.0000000000
      1915        54  MOL       C7              2.6695560467       -7.1727548995        3.8088919616  SYS       54              0.0000000000
      1916        54  MOL       C8              3.5596623186       -6.4492401789        1.6547940077  SYS       54              0.0000000000
      1917        54  MOL       C9              2.1320247667       -5.0998438141        0.1438752207  SYS       54              0.0000000000
      1918        54  MOL       H10             0.2734212958       -4.6874349872        0.8944655769  SYS       54              0.0000000000
      1919        54  MOL       C11            -0.6403606020       -6.5265946724        5.4435734858  SYS       54              0.0000000000
      1920        54  MOL       C12             1.6367557008       -7.1854945936        4.7357776331  SYS       54              0.0000000000
      1921        54  MOL       H13             3.4877281524       -7.6165137598        3.9994452745  SYS       54              0.0000000000
      1922        54  MOL       H14             4.3805075713       -6.8888211567        1.8427627006  SYS       54              0.0000000000
      1923        54  MOL       C15             3.3962194862       -5.7681211507        0.4412764800  SYS       54              0.0000000000
      1924        54  MOL       C16             1.9701099424       -4.4464885162       -1.0942408034  SYS       54              0.0000000000
      1925        54  MOL       C17            -0.4430088313       -7.1535419933        6.6272588538  SYS       54              0.0000000000
      1926        54  MOL       H18            -1.4633995975       -6.0846142321        5.2720565163  SYS       54              0.0000000000
      1927        54  MOL       C19             1.7889574404       -7.8521746130        5.9885674053  SYS       54              0.0000000000
      1928        54  MOL       C20             4.4462340133       -5.7281020270       -0.5092320476  SYS       54              0.0000000000
      1929        54  MOL       C21             2.9984632239       -4.4479199768       -2.0261438940  SYS       54              0.0000000000
      1930        54  MOL       H22             1.1457763906       -4.0189870791       -1.2951258509  SYS       54              0.0000000000
      1931        54  MOL       C23             0.7876893128       -7.8286963926        6.9023210613  SYS       54              0.0000000000
      1932        54  MOL       H24            -1.1251325176       -7.1443866282        7.2879754120  SYS       54              0.0000000000
      1933        54  MOL       H25             2.6018186874       -8.3054670892        6.1809713798  SYS       54              0.0000000000
      1934        54  MOL       H26             5.2717542654       -6.1577082310       -0.3176347905  SYS       54              0.0000000000
      1935        54  MOL       C27             4.2605127249       -5.0829334344       -1.7188742839  SYS       54              0.0000000000
      1936        54  MOL       C28             2.8277260615       -3.8447310188       -3.3083770098  SYS       54              0.0000000000
      1937        54  MOL       H29             0.8977551145       -8.2630656319        7.7401538466  SYS       54              0.0000000000
      1938        54  MOL       C30             5.3065870623       -5.0471572720       -2.6933618162  SYS       54              0.0000000000
      1939        54  MOL       C31             3.8400663025       -3.8596971791       -4.2100299898  SYS       54              0.0000000000
      1940        54  MOL       H32             1.9981072498       -3.4373181550       -3.5297006506  SYS       54              0.0000000000
      1941        54  MOL       C33             5.1032653464       -4.4504943521       -3.8916002557  SYS       54              0.0000000000
      1942        54  MOL       H34             6.1434546059       -5.4533039266       -2.5013837261  SYS       54              0.0000000000
      1943        54  MOL       H35             3.7194370624       -3.4742463065       -5.0700480649  SYS       54              0.0000000000
      1944        54  MOL       H36             5.8034043809       -4.4284720797       -4.5328827778  SYS       54              0.0000000000
